fcc Cu                                  
   4.00000000000000     
     1.000000    0.000000    0.000000
     0.000000    1.000000    0.000000
     0.000000    0.000000    1.000000
   Cu
     4
Direct
  0.000000  0.000000  0.000000
  0.500000  0.500000  0.000000
  0.000000  0.500000  0.500000
  0.500000  0.000000  0.500000
 
   36   36   36
  963.28      916.38      788.48      611.97      425.34      260.90      138.51      63.967      29.847      18.914    
  13.686      10.288      8.2696      7.1167      6.3986      5.8775      5.5380      5.3985      5.3746      5.3985    
  5.5380      5.8775      6.3986      7.1167      8.2696      10.288      13.686      18.914      29.847      63.967    
  138.51      260.90      425.34      611.97      788.48      916.38      916.38      871.65      749.61      581.15    
  403.09      246.49      130.43      60.351      28.720      18.602      13.511      10.213      8.2506      7.1231    
  6.4156      5.9011      5.5646      5.4239      5.3985      5.4239      5.5646      5.9011      6.4156      7.1231    
  8.2506      10.213      13.511      18.602      28.720      60.351      130.43      246.49      403.09      581.15    
  749.61      871.65      788.48      749.61      643.51      497.02      342.49      207.48      108.88      50.920    
  25.884      17.719      13.027      10.013      8.2146      7.1668      6.5006      6.0169      5.7006      5.5646    
  5.5380      5.5646      5.7006      6.0169      6.5006      7.1668      8.2146      10.013      13.027      17.719    
  25.884      50.920      108.88      207.48      342.49      497.02      643.51      749.61      611.97      581.15    
  497.02      381.08      259.52      154.88      80.639      39.201      22.568      16.408      12.336      9.7531    
  8.2052      7.2900      6.7039      6.2854      6.0169      5.9011      5.8775      5.9011      6.0169      6.2854    
  6.7039      7.2900      8.2052      9.7531      12.336      16.408      22.568      39.201      80.639      154.88    
  259.52      381.08      497.02      581.15      425.34      403.09      342.49      259.52      173.79      102.07    
  53.758      28.995      19.701      14.881      11.579      9.5088      8.2615      7.5133      7.0343      6.7039    
  6.5006      6.4156      6.3986      6.4156      6.5006      6.7039      7.0343      7.5133      8.2615      9.5088    
  11.579      14.881      19.701      28.995      53.758      102.07      173.79      259.52      342.49      403.09    
  260.90      246.49      207.48      154.88      102.07      60.124      34.198      22.363      17.111      13.374    
  10.893      9.3530      8.4227      7.8626      7.5133      7.2900      7.1668      7.1231      7.1167      7.1231    
  7.1668      7.2900      7.5133      7.8626      8.4227      9.3530      10.893      13.374      17.111      22.363    
  34.198      60.124      102.07      154.88      207.48      246.49      138.51      130.43      108.88      80.639    
  53.758      34.198      23.519      18.423      14.724      12.085      10.385      9.3528      8.7520      8.4227    
  8.2615      8.2052      8.2146      8.2506      8.2696      8.2506      8.2146      8.2052      8.2615      8.4227    
  8.7520      9.3528      10.385      12.085      14.724      18.423      23.519      34.198      53.758      80.639    
  108.88      130.43      63.967      60.351      50.920      39.201      28.995      22.363      18.423      15.231    
  12.790      11.136      10.126      9.5790      9.3528      9.3530      9.5088      9.7531      10.013      10.213    
  10.288      10.213      10.013      9.7531      9.5088      9.3530      9.3528      9.5790      10.126      11.136    
  12.790      15.231      18.423      22.363      28.995      39.201      50.920      60.351      29.847      28.720    
  25.884      22.568      19.701      17.111      14.724      12.790      11.413      10.568      10.167      10.126    
  10.385      10.893      11.579      12.336      13.027      13.511      13.686      13.511      13.027      12.336    
  11.579      10.893      10.385      10.126      10.167      10.568      11.413      12.790      14.724      17.111    
  19.701      22.568      25.884      28.720      18.914      18.602      17.719      16.408      14.881      13.374    
  12.085      11.136      10.568      10.381      10.568      11.136      12.085      13.374      14.881      16.408    
  17.719      18.602      18.914      18.602      17.719      16.408      14.881      13.374      12.085      11.136    
  10.568      10.381      10.568      11.136      12.085      13.374      14.881      16.408      17.719      18.602    
  13.686      13.511      13.027      12.336      11.579      10.893      10.385      10.126      10.167      10.568    
  11.413      12.790      14.724      17.111      19.701      22.568      25.884      28.720      29.847      28.720    
  25.884      22.568      19.701      17.111      14.724      12.790      11.413      10.568      10.167      10.126    
  10.385      10.893      11.579      12.336      13.027      13.511      10.288      10.213      10.013      9.7531    
  9.5088      9.3530      9.3528      9.5790      10.126      11.136      12.790      15.231      18.423      22.363    
  28.995      39.201      50.920      60.351      63.967      60.351      50.920      39.201      28.995      22.363    
  18.423      15.231      12.790      11.136      10.126      9.5790      9.3528      9.3530      9.5088      9.7531    
  10.013      10.213      8.2696      8.2506      8.2146      8.2052      8.2615      8.4227      8.7520      9.3528    
  10.385      12.085      14.724      18.423      23.519      34.198      53.758      80.639      108.88      130.43    
  138.51      130.43      108.88      80.639      53.758      34.198      23.519      18.423      14.724      12.085    
  10.385      9.3528      8.7520      8.4227      8.2615      8.2052      8.2146      8.2506      7.1167      7.1231    
  7.1668      7.2900      7.5133      7.8626      8.4227      9.3530      10.893      13.374      17.111      22.363    
  34.198      60.124      102.07      154.88      207.48      246.49      260.90      246.49      207.48      154.88    
  102.07      60.124      34.198      22.363      17.111      13.374      10.893      9.3530      8.4227      7.8626    
  7.5133      7.2900      7.1668      7.1231      6.3986      6.4156      6.5006      6.7039      7.0343      7.5133    
  8.2615      9.5088      11.579      14.881      19.701      28.995      53.758      102.07      173.79      259.52    
  342.49      403.09      425.34      403.09      342.49      259.52      173.79      102.07      53.758      28.995    
  19.701      14.881      11.579      9.5088      8.2615      7.5133      7.0343      6.7039      6.5006      6.4156    
  5.8775      5.9011      6.0169      6.2854      6.7039      7.2900      8.2052      9.7531      12.336      16.408    
  22.568      39.201      80.639      154.88      259.52      381.08      497.02      581.15      611.97      581.15    
  497.02      381.08      259.52      154.88      80.639      39.201      22.568      16.408      12.336      9.7531    
  8.2052      7.2900      6.7039      6.2854      6.0169      5.9011      5.5380      5.5646      5.7006      6.0169    
  6.5006      7.1668      8.2146      10.013      13.027      17.719      25.884      50.920      108.88      207.48    
  342.49      497.02      643.51      749.61      788.48      749.61      643.51      497.02      342.49      207.48    
  108.88      50.920      25.884      17.719      13.027      10.013      8.2146      7.1668      6.5006      6.0169    
  5.7006      5.5646      5.3985      5.4239      5.5646      5.9011      6.4156      7.1231      8.2506      10.213    
  13.511      18.602      28.720      60.351      130.43      246.49      403.09      581.15      749.61      871.65    
  916.38      871.65      749.61      581.15      403.09      246.49      130.43      60.351      28.720      18.602    
  13.511      10.213      8.2506      7.1231      6.4156      5.9011      5.5646      5.4239      5.3746      5.3985    
  5.5380      5.8775      6.3986      7.1167      8.2696      10.288      13.686      18.914      29.847      63.967    
  138.51      260.90      425.34      611.97      788.48      916.38      963.28      916.38      788.48      611.97    
  425.34      260.90      138.51      63.967      29.847      18.914      13.686      10.288      8.2696      7.1167    
  6.3986      5.8775      5.5380      5.3985      5.3985      5.4239      5.5646      5.9011      6.4156      7.1231    
  8.2506      10.213      13.511      18.602      28.720      60.351      130.43      246.49      403.09      581.15    
  749.61      871.65      916.38      871.65      749.61      581.15      403.09      246.49      130.43      60.351    
  28.720      18.602      13.511      10.213      8.2506      7.1231      6.4156      5.9011      5.5646      5.4239    
  5.5380      5.5646      5.7006      6.0169      6.5006      7.1668      8.2146      10.013      13.027      17.719    
  25.884      50.920      108.88      207.48      342.49      497.02      643.51      749.61      788.48      749.61    
  643.51      497.02      342.49      207.48      108.88      50.920      25.884      17.719      13.027      10.013    
  8.2146      7.1668      6.5006      6.0169      5.7006      5.5646      5.8775      5.9011      6.0169      6.2854    
  6.7039      7.2900      8.2052      9.7531      12.336      16.408      22.568      39.201      80.639      154.88    
  259.52      381.08      497.02      581.15      611.97      581.15      497.02      381.08      259.52      154.88    
  80.639      39.201      22.568      16.408      12.336      9.7531      8.2052      7.2900      6.7039      6.2854    
  6.0169      5.9011      6.3986      6.4156      6.5006      6.7039      7.0343      7.5133      8.2615      9.5088    
  11.579      14.881      19.701      28.995      53.758      102.07      173.79      259.52      342.49      403.09    
  425.34      403.09      342.49      259.52      173.79      102.07      53.758      28.995      19.701      14.881    
  11.579      9.5088      8.2615      7.5133      7.0343      6.7039      6.5006      6.4156      7.1167      7.1231    
  7.1668      7.2900      7.5133      7.8626      8.4227      9.3530      10.893      13.374      17.111      22.363    
  34.198      60.124      102.07      154.88      207.48      246.49      260.90      246.49      207.48      154.88    
  102.07      60.124      34.198      22.363      17.111      13.374      10.893      9.3530      8.4227      7.8626    
  7.5133      7.2900      7.1668      7.1231      8.2696      8.2506      8.2146      8.2052      8.2615      8.4227    
  8.7520      9.3528      10.385      12.085      14.724      18.423      23.519      34.198      53.758      80.639    
  108.88      130.43      138.51      130.43      108.88      80.639      53.758      34.198      23.519      18.423    
  14.724      12.085      10.385      9.3528      8.7520      8.4227      8.2615      8.2052      8.2146      8.2506    
  10.288      10.213      10.013      9.7531      9.5088      9.3530      9.3528      9.5790      10.126      11.136    
  12.790      15.231      18.423      22.363      28.995      39.201      50.920      60.351      63.967      60.351    
  50.920      39.201      28.995      22.363      18.423      15.231      12.790      11.136      10.126      9.5790    
  9.3528      9.3530      9.5088      9.7531      10.013      10.213      13.686      13.511      13.027      12.336    
  11.579      10.893      10.385      10.126      10.167      10.568      11.413      12.790      14.724      17.111    
  19.701      22.568      25.884      28.720      29.847      28.720      25.884      22.568      19.701      17.111    
  14.724      12.790      11.413      10.568      10.167      10.126      10.385      10.893      11.579      12.336    
  13.027      13.511      18.914      18.602      17.719      16.408      14.881      13.374      12.085      11.136    
  10.568      10.381      10.568      11.136      12.085      13.374      14.881      16.408      17.719      18.602    
  18.914      18.602      17.719      16.408      14.881      13.374      12.085      11.136      10.568      10.381    
  10.568      11.136      12.085      13.374      14.881      16.408      17.719      18.602      29.847      28.720    
  25.884      22.568      19.701      17.111      14.724      12.790      11.413      10.568      10.167      10.126    
  10.385      10.893      11.579      12.336      13.027      13.511      13.686      13.511      13.027      12.336    
  11.579      10.893      10.385      10.126      10.167      10.568      11.413      12.790      14.724      17.111    
  19.701      22.568      25.884      28.720      63.967      60.351      50.920      39.201      28.995      22.363    
  18.423      15.231      12.790      11.136      10.126      9.5790      9.3528      9.3530      9.5088      9.7531    
  10.013      10.213      10.288      10.213      10.013      9.7531      9.5088      9.3530      9.3528      9.5790    
  10.126      11.136      12.790      15.231      18.423      22.363      28.995      39.201      50.920      60.351    
  138.51      130.43      108.88      80.639      53.758      34.198      23.519      18.423      14.724      12.085    
  10.385      9.3528      8.7520      8.4227      8.2615      8.2052      8.2146      8.2506      8.2696      8.2506    
  8.2146      8.2052      8.2615      8.4227      8.7520      9.3528      10.385      12.085      14.724      18.423    
  23.519      34.198      53.758      80.639      108.88      130.43      260.90      246.49      207.48      154.88    
  102.07      60.124      34.198      22.363      17.111      13.374      10.893      9.3530      8.4227      7.8626    
  7.5133      7.2900      7.1668      7.1231      7.1167      7.1231      7.1668      7.2900      7.5133      7.8626    
  8.4227      9.3530      10.893      13.374      17.111      22.363      34.198      60.124      102.07      154.88    
  207.48      246.49      425.34      403.09      342.49      259.52      173.79      102.07      53.758      28.995    
  19.701      14.881      11.579      9.5088      8.2615      7.5133      7.0343      6.7039      6.5006      6.4156    
  6.3986      6.4156      6.5006      6.7039      7.0343      7.5133      8.2615      9.5088      11.579      14.881    
  19.701      28.995      53.758      102.07      173.79      259.52      342.49      403.09      611.97      581.15    
  497.02      381.08      259.52      154.88      80.639      39.201      22.568      16.408      12.336      9.7531    
  8.2052      7.2900      6.7039      6.2854      6.0169      5.9011      5.8775      5.9011      6.0169      6.2854    
  6.7039      7.2900      8.2052      9.7531      12.336      16.408      22.568      39.201      80.639      154.88    
  259.52      381.08      497.02      581.15      788.48      749.61      643.51      497.02      342.49      207.48    
  108.88      50.920      25.884      17.719      13.027      10.013      8.2146      7.1668      6.5006      6.0169    
  5.7006      5.5646      5.5380      5.5646      5.7006      6.0169      6.5006      7.1668      8.2146      10.013    
  13.027      17.719      25.884      50.920      108.88      207.48      342.49      497.02      643.51      749.61    
  916.38      871.65      749.61      581.15      403.09      246.49      130.43      60.351      28.720      18.602    
  13.511      10.213      8.2506      7.1231      6.4156      5.9011      5.5646      5.4239      5.3985      5.4239    
  5.5646      5.9011      6.4156      7.1231      8.2506      10.213      13.511      18.602      28.720      60.351    
  130.43      246.49      403.09      581.15      749.61      871.65      916.38      871.65      749.61      581.15    
  403.09      246.49      130.43      60.351      28.720      18.602      13.511      10.213      8.2506      7.1231    
  6.4156      5.9011      5.5646      5.4239      5.3985      5.4239      5.5646      5.9011      6.4156      7.1231    
  8.2506      10.213      13.511      18.602      28.720      60.351      130.43      246.49      403.09      581.15    
  749.61      871.65      871.65      828.97      712.51      551.73      381.88      232.79      122.82      56.978    
  27.687      18.298      13.341      10.140      8.2321      7.1294      6.4328      5.9252      5.5923      5.4507    
  5.4239      5.4507      5.5923      5.9252      6.4328      7.1294      8.2321      10.140      13.341      18.298    
  27.687      56.978      122.82      232.79      381.88      551.73      712.51      828.97      749.61      712.51    
  611.25      471.48      324.16      195.77      102.50      48.202      25.092      17.435      12.869      9.9452    
  8.1964      7.1722      6.5170      6.0406      5.7284      5.5923      5.5646      5.5923      5.7284      6.0406    
  6.5170      7.1722      8.1964      9.9452      12.869      17.435      25.092      48.202      102.50      195.77    
  324.16      471.48      611.25      712.51      581.15      551.73      471.48      360.93      245.22      145.94    
  75.969      37.346      22.050      16.155      12.198      9.6913      8.1863      7.2919      6.7162      6.3049    
  6.0406      5.9252      5.9011      5.9252      6.0406      6.3049      6.7162      7.2919      8.1863      9.6913    
  12.198      16.155      22.050      37.346      75.969      145.94      245.22      360.93      471.48      551.73    
  403.09      381.88      324.16      245.22      163.85      96.116      50.854      27.956      19.361      14.667    
  11.462      9.4532      8.2404      7.5095      7.0400      6.7162      6.5170      6.4328      6.4156      6.4328    
  6.5170      6.7162      7.0400      7.5095      8.2404      9.4532      11.462      14.667      19.361      27.956    
  50.854      96.116      163.85      245.22      324.16      381.88      246.49      232.79      195.77      145.94    
  96.116      56.790      32.742      21.871      16.835      13.203      10.796      9.3020      8.3974      7.8509    
  7.5095      7.2919      7.1722      7.1294      7.1231      7.1294      7.1722      7.2919      7.5095      7.8509    
  8.3974      9.3020      10.796      13.203      16.835      21.871      32.742      56.790      96.116      145.94    
  195.77      232.79      130.43      122.82      102.50      75.969      50.854      32.742      22.942      18.111    
  14.512      11.953      10.304      9.3026      8.7184      8.3974      8.2404      8.1863      8.1964      8.2321    
  8.2506      8.2321      8.1964      8.1863      8.2404      8.3974      8.7184      9.3026      10.304      11.953    
  14.512      18.111      22.942      32.742      50.854      75.969      102.50      122.82      60.351      56.978    
  48.202      37.346      27.956      21.871      18.111      15.004      12.636      11.033      10.054      9.5232    
  9.3026      9.3020      9.4532      9.6913      9.9452      10.140      10.213      10.140      9.9452      9.6913    
  9.4532      9.3020      9.3026      9.5232      10.054      11.033      12.636      15.004      18.111      21.871    
  27.956      37.346      48.202      56.978      28.720      27.687      25.092      22.050      19.361      16.835    
  14.512      12.636      11.303      10.484      10.095      10.054      10.304      10.796      11.462      12.198    
  12.869      13.341      13.511      13.341      12.869      12.198      11.462      10.796      10.304      10.054    
  10.095      10.484      11.303      12.636      14.512      16.835      19.361      22.050      25.092      27.687    
  18.602      18.298      17.435      16.155      14.667      13.203      11.953      11.033      10.484      10.303    
  10.484      11.033      11.953      13.203      14.667      16.155      17.435      18.298      18.602      18.298    
  17.435      16.155      14.667      13.203      11.953      11.033      10.484      10.303      10.484      11.033    
  11.953      13.203      14.667      16.155      17.435      18.298      13.511      13.341      12.869      12.198    
  11.462      10.796      10.304      10.054      10.095      10.484      11.303      12.636      14.512      16.835    
  19.361      22.050      25.092      27.687      28.720      27.687      25.092      22.050      19.361      16.835    
  14.512      12.636      11.303      10.484      10.095      10.054      10.304      10.796      11.462      12.198    
  12.869      13.341      10.213      10.140      9.9452      9.6913      9.4532      9.3020      9.3026      9.5232    
  10.054      11.033      12.636      15.004      18.111      21.871      27.956      37.346      48.202      56.978    
  60.351      56.978      48.202      37.346      27.956      21.871      18.111      15.004      12.636      11.033    
  10.054      9.5232      9.3026      9.3020      9.4532      9.6913      9.9452      10.140      8.2506      8.2321    
  8.1964      8.1863      8.2404      8.3974      8.7184      9.3026      10.304      11.953      14.512      18.111    
  22.942      32.742      50.854      75.969      102.50      122.82      130.43      122.82      102.50      75.969    
  50.854      32.742      22.942      18.111      14.512      11.953      10.304      9.3026      8.7184      8.3974    
  8.2404      8.1863      8.1964      8.2321      7.1231      7.1294      7.1722      7.2919      7.5095      7.8509    
  8.3974      9.3020      10.796      13.203      16.835      21.871      32.742      56.790      96.116      145.94    
  195.77      232.79      246.49      232.79      195.77      145.94      96.116      56.790      32.742      21.871    
  16.835      13.203      10.796      9.3020      8.3974      7.8509      7.5095      7.2919      7.1722      7.1294    
  6.4156      6.4328      6.5170      6.7162      7.0400      7.5095      8.2404      9.4532      11.462      14.667    
  19.361      27.956      50.854      96.116      163.85      245.22      324.16      381.88      403.09      381.88    
  324.16      245.22      163.85      96.116      50.854      27.956      19.361      14.667      11.462      9.4532    
  8.2404      7.5095      7.0400      6.7162      6.5170      6.4328      5.9011      5.9252      6.0406      6.3049    
  6.7162      7.2919      8.1863      9.6913      12.198      16.155      22.050      37.346      75.969      145.94    
  245.22      360.93      471.48      551.73      581.15      551.73      471.48      360.93      245.22      145.94    
  75.969      37.346      22.050      16.155      12.198      9.6913      8.1863      7.2919      6.7162      6.3049    
  6.0406      5.9252      5.5646      5.5923      5.7284      6.0406      6.5170      7.1722      8.1964      9.9452    
  12.869      17.435      25.092      48.202      102.50      195.77      324.16      471.48      611.25      712.51    
  749.61      712.51      611.25      471.48      324.16      195.77      102.50      48.202      25.092      17.435    
  12.869      9.9452      8.1964      7.1722      6.5170      6.0406      5.7284      5.5923      5.4239      5.4507    
  5.5923      5.9252      6.4328      7.1294      8.2321      10.140      13.341      18.298      27.687      56.978    
  122.82      232.79      381.88      551.73      712.51      828.97      871.65      828.97      712.51      551.73    
  381.88      232.79      122.82      56.978      27.687      18.298      13.341      10.140      8.2321      7.1294    
  6.4328      5.9252      5.5923      5.4507      5.3985      5.4239      5.5646      5.9011      6.4156      7.1231    
  8.2506      10.213      13.511      18.602      28.720      60.351      130.43      246.49      403.09      581.15    
  749.61      871.65      916.38      871.65      749.61      581.15      403.09      246.49      130.43      60.351    
  28.720      18.602      13.511      10.213      8.2506      7.1231      6.4156      5.9011      5.5646      5.4239    
  5.4239      5.4507      5.5923      5.9252      6.4328      7.1294      8.2321      10.140      13.341      18.298    
  27.687      56.978      122.82      232.79      381.88      551.73      712.51      828.97      871.65      828.97    
  712.51      551.73      381.88      232.79      122.82      56.978      27.687      18.298      13.341      10.140    
  8.2321      7.1294      6.4328      5.9252      5.5923      5.4507      5.5646      5.5923      5.7284      6.0406    
  6.5170      7.1722      8.1964      9.9452      12.869      17.435      25.092      48.202      102.50      195.77    
  324.16      471.48      611.25      712.51      749.61      712.51      611.25      471.48      324.16      195.77    
  102.50      48.202      25.092      17.435      12.869      9.9452      8.1964      7.1722      6.5170      6.0406    
  5.7284      5.5923      5.9011      5.9252      6.0406      6.3049      6.7162      7.2919      8.1863      9.6913    
  12.198      16.155      22.050      37.346      75.969      145.94      245.22      360.93      471.48      551.73    
  581.15      551.73      471.48      360.93      245.22      145.94      75.969      37.346      22.050      16.155    
  12.198      9.6913      8.1863      7.2919      6.7162      6.3049      6.0406      5.9252      6.4156      6.4328    
  6.5170      6.7162      7.0400      7.5095      8.2404      9.4532      11.462      14.667      19.361      27.956    
  50.854      96.116      163.85      245.22      324.16      381.88      403.09      381.88      324.16      245.22    
  163.85      96.116      50.854      27.956      19.361      14.667      11.462      9.4532      8.2404      7.5095    
  7.0400      6.7162      6.5170      6.4328      7.1231      7.1294      7.1722      7.2919      7.5095      7.8509    
  8.3974      9.3020      10.796      13.203      16.835      21.871      32.742      56.790      96.116      145.94    
  195.77      232.79      246.49      232.79      195.77      145.94      96.116      56.790      32.742      21.871    
  16.835      13.203      10.796      9.3020      8.3974      7.8509      7.5095      7.2919      7.1722      7.1294    
  8.2506      8.2321      8.1964      8.1863      8.2404      8.3974      8.7184      9.3026      10.304      11.953    
  14.512      18.111      22.942      32.742      50.854      75.969      102.50      122.82      130.43      122.82    
  102.50      75.969      50.854      32.742      22.942      18.111      14.512      11.953      10.304      9.3026    
  8.7184      8.3974      8.2404      8.1863      8.1964      8.2321      10.213      10.140      9.9452      9.6913    
  9.4532      9.3020      9.3026      9.5232      10.054      11.033      12.636      15.004      18.111      21.871    
  27.956      37.346      48.202      56.978      60.351      56.978      48.202      37.346      27.956      21.871    
  18.111      15.004      12.636      11.033      10.054      9.5232      9.3026      9.3020      9.4532      9.6913    
  9.9452      10.140      13.511      13.341      12.869      12.198      11.462      10.796      10.304      10.054    
  10.095      10.484      11.303      12.636      14.512      16.835      19.361      22.050      25.092      27.687    
  28.720      27.687      25.092      22.050      19.361      16.835      14.512      12.636      11.303      10.484    
  10.095      10.054      10.304      10.796      11.462      12.198      12.869      13.341      18.602      18.298    
  17.435      16.155      14.667      13.203      11.953      11.033      10.484      10.303      10.484      11.033    
  11.953      13.203      14.667      16.155      17.435      18.298      18.602      18.298      17.435      16.155    
  14.667      13.203      11.953      11.033      10.484      10.303      10.484      11.033      11.953      13.203    
  14.667      16.155      17.435      18.298      28.720      27.687      25.092      22.050      19.361      16.835    
  14.512      12.636      11.303      10.484      10.095      10.054      10.304      10.796      11.462      12.198    
  12.869      13.341      13.511      13.341      12.869      12.198      11.462      10.796      10.304      10.054    
  10.095      10.484      11.303      12.636      14.512      16.835      19.361      22.050      25.092      27.687    
  60.351      56.978      48.202      37.346      27.956      21.871      18.111      15.004      12.636      11.033    
  10.054      9.5232      9.3026      9.3020      9.4532      9.6913      9.9452      10.140      10.213      10.140    
  9.9452      9.6913      9.4532      9.3020      9.3026      9.5232      10.054      11.033      12.636      15.004    
  18.111      21.871      27.956      37.346      48.202      56.978      130.43      122.82      102.50      75.969    
  50.854      32.742      22.942      18.111      14.512      11.953      10.304      9.3026      8.7184      8.3974    
  8.2404      8.1863      8.1964      8.2321      8.2506      8.2321      8.1964      8.1863      8.2404      8.3974    
  8.7184      9.3026      10.304      11.953      14.512      18.111      22.942      32.742      50.854      75.969    
  102.50      122.82      246.49      232.79      195.77      145.94      96.116      56.790      32.742      21.871    
  16.835      13.203      10.796      9.3020      8.3974      7.8509      7.5095      7.2919      7.1722      7.1294    
  7.1231      7.1294      7.1722      7.2919      7.5095      7.8509      8.3974      9.3020      10.796      13.203    
  16.835      21.871      32.742      56.790      96.116      145.94      195.77      232.79      403.09      381.88    