fcc Cu                                  
   4.00000000000000     
     1.000000    0.000000    0.000000
     0.000000    1.000000    0.000000
     0.000000    0.000000    1.000000
   Cu
     4
Direct
  0.000000  0.000000  0.000000
  0.500000  0.500000  0.000000
  0.000000  0.500000  0.500000
  0.500000  0.000000  0.500000
 
   36   36   36
 0.96327927030E+03 0.91638200690E+03 0.78848393360E+03 0.61197372605E+03 0.42534000564E+03
 0.26090049919E+03 0.13850539384E+03 0.63967139476E+02 0.29846531368E+02 0.18913779446E+02
 0.13685847744E+02 0.10288373497E+02 0.82696043400E+01 0.71167352948E+01 0.63985527359E+01
 0.58775348103E+01 0.55379563509E+01 0.53984751122E+01 0.53745882621E+01 0.53984751122E+01
 0.55379563509E+01 0.58775348103E+01 0.63985527359E+01 0.71167352948E+01 0.82696043400E+01
 0.10288373497E+02 0.13685847744E+02 0.18913779446E+02 0.29846531368E+02 0.63967139476E+02
 0.13850539384E+03 0.26090049919E+03 0.42534000564E+03 0.61197372605E+03 0.78848393360E+03
 0.91638200690E+03 0.91638200690E+03 0.87164562928E+03 0.74960856520E+03 0.58114621810E+03
 0.40308620584E+03 0.24648615899E+03 0.13043451375E+03 0.60350550867E+02 0.28719754346E+02
 0.18602486693E+02 0.13511339414E+02 0.10213204405E+02 0.82506372735E+01 0.71230622615E+01
 0.64155508743E+01 0.59010754403E+01 0.55646308323E+01 0.54238964177E+01 0.53984751122E+01
 0.54238964177E+01 0.55646308323E+01 0.59010754403E+01 0.64155508743E+01 0.71230622615E+01
 0.82506372735E+01 0.10213204405E+02 0.13511339414E+02 0.18602486693E+02 0.28719754346E+02
 0.60350550867E+02 0.13043451375E+03 0.24648615899E+03 0.40308620584E+03 0.58114621810E+03
 0.74960856520E+03 0.87164562928E+03 0.78848393360E+03 0.74960856520E+03 0.64350686065E+03
 0.49702175925E+03 0.34249431184E+03 0.20748473527E+03 0.10887782330E+03 0.50920389117E+02
 0.25884359904E+02 0.17719463447E+02 0.13026577116E+02 0.10013418906E+02 0.82146199388E+01
 0.71668477124E+01 0.65006476888E+01 0.60168899704E+01 0.57006307177E+01 0.55646308323E+01
 0.55379563509E+01 0.55646308323E+01 0.57006307177E+01 0.60168899704E+01 0.65006476888E+01
 0.71668477124E+01 0.82146199388E+01 0.10013418906E+02 0.13026577116E+02 0.17719463447E+02
 0.25884359904E+02 0.50920389117E+02 0.10887782330E+03 0.20748473527E+03 0.34249431184E+03
 0.49702175925E+03 0.64350686065E+03 0.74960856520E+03 0.61197372605E+03 0.58114621810E+03
 0.49702175925E+03 0.38107909927E+03 0.25952174968E+03 0.15487596449E+03 0.80639348417E+02
 0.39201411262E+02 0.22568436140E+02 0.16407837446E+02 0.12335991617E+02 0.97530935393E+01
 0.82051893679E+01 0.72900405591E+01 0.67038832325E+01 0.62853809209E+01 0.60168899704E+01
 0.59010754403E+01 0.58775348103E+01 0.59010754403E+01 0.60168899704E+01 0.62853809209E+01
 0.67038832325E+01 0.72900405591E+01 0.82051893679E+01 0.97530935393E+01 0.12335991617E+02
 0.16407837446E+02 0.22568436140E+02 0.39201411262E+02 0.80639348417E+02 0.15487596449E+03
 0.25952174968E+03 0.38107909927E+03 0.49702175925E+03 0.58114621810E+03 0.42534000564E+03
 0.40308620584E+03 0.34249431184E+03 0.25952174968E+03 0.17379039225E+03 0.10207469860E+03
 0.53757697865E+02 0.28994657962E+02 0.19700950329E+02 0.14880974840E+02 0.11578957704E+02
 0.95087820543E+01 0.82615417472E+01 0.75132770303E+01 0.70343000229E+01 0.67038832325E+01
 0.65006476888E+01 0.64155508743E+01 0.63985527359E+01 0.64155508743E+01 0.65006476888E+01
 0.67038832325E+01 0.70343000229E+01 0.75132770303E+01 0.82615417472E+01 0.95087820543E+01
 0.11578957704E+02 0.14880974840E+02 0.19700950329E+02 0.28994657962E+02 0.53757697865E+02
 0.10207469860E+03 0.17379039225E+03 0.25952174968E+03 0.34249431184E+03 0.40308620584E+03
 0.26090049919E+03 0.24648615899E+03 0.20748473527E+03 0.15487596449E+03 0.10207469860E+03
 0.60124294290E+02 0.34197591517E+02 0.22362575082E+02 0.17111444325E+02 0.13374125098E+02
 0.10892796003E+02 0.93529678990E+01 0.84227116038E+01 0.78625848410E+01 0.75132770303E+01
 0.72900405591E+01 0.71668477124E+01 0.71230622615E+01 0.71167352948E+01 0.71230622615E+01
 0.71668477124E+01 0.72900405591E+01 0.75132770303E+01 0.78625848410E+01 0.84227116038E+01
 0.93529678990E+01 0.10892796003E+02 0.13374125098E+02 0.17111444325E+02 0.22362575082E+02
 0.34197591517E+02 0.60124294290E+02 0.10207469860E+03 0.15487596449E+03 0.20748473527E+03
 0.24648615899E+03 0.13850539384E+03 0.13043451375E+03 0.10887782330E+03 0.80639348417E+02
 0.53757697865E+02 0.34197591517E+02 0.23519115039E+02 0.18423092041E+02 0.14724426768E+02
 0.12085437319E+02 0.10384888833E+02 0.93527749957E+01 0.87519911271E+01 0.84227116038E+01
 0.82615417472E+01 0.82051893679E+01 0.82146199388E+01 0.82506372735E+01 0.82696043400E+01
 0.82506372735E+01 0.82146199388E+01 0.82051893679E+01 0.82615417472E+01 0.84227116038E+01
 0.87519911271E+01 0.93527749957E+01 0.10384888833E+02 0.12085437319E+02 0.14724426768E+02
 0.18423092041E+02 0.23519115039E+02 0.34197591517E+02 0.53757697865E+02 0.80639348417E+02
 0.10887782330E+03 0.13043451375E+03 0.63967139476E+02 0.60350550867E+02 0.50920389117E+02
 0.39201411262E+02 0.28994657962E+02 0.22362575082E+02 0.18423092041E+02 0.15231032333E+02
 0.12790298275E+02 0.11135659745E+02 0.10125940647E+02 0.95789951302E+01 0.93527749957E+01
 0.93529678990E+01 0.95087820543E+01 0.97530935393E+01 0.10013418906E+02 0.10213204405E+02
 0.10288373497E+02 0.10213204405E+02 0.10013418906E+02 0.97530935393E+01 0.95087820543E+01
 0.93529678990E+01 0.93527749957E+01 0.95789951302E+01 0.10125940647E+02 0.11135659745E+02
 0.12790298275E+02 0.15231032333E+02 0.18423092041E+02 0.22362575082E+02 0.28994657962E+02
 0.39201411262E+02 0.50920389117E+02 0.60350550867E+02 0.29846531368E+02 0.28719754346E+02
 0.25884359904E+02 0.22568436140E+02 0.19700950329E+02 0.17111444325E+02 0.14724426768E+02
 0.12790298275E+02 0.11413314465E+02 0.10567784090E+02 0.10166902764E+02 0.10125940647E+02
 0.10384888833E+02 0.10892796003E+02 0.11578957704E+02 0.12335991617E+02 0.13026577116E+02
 0.13511339414E+02 0.13685847744E+02 0.13511339414E+02 0.13026577116E+02 0.12335991617E+02
 0.11578957704E+02 0.10892796003E+02 0.10384888833E+02 0.10125940647E+02 0.10166902764E+02
 0.10567784090E+02 0.11413314465E+02 0.12790298275E+02 0.14724426768E+02 0.17111444325E+02
 0.19700950329E+02 0.22568436140E+02 0.25884359904E+02 0.28719754346E+02 0.18913779446E+02
 0.18602486693E+02 0.17719463447E+02 0.16407837446E+02 0.14880974840E+02 0.13374125098E+02
 0.12085437319E+02 0.11135659745E+02 0.10567784090E+02 0.10380522906E+02 0.10567784090E+02
 0.11135659745E+02 0.12085437319E+02 0.13374125098E+02 0.14880974840E+02 0.16407837446E+02
 0.17719463447E+02 0.18602486693E+02 0.18913779446E+02 0.18602486693E+02 0.17719463447E+02
 0.16407837446E+02 0.14880974840E+02 0.13374125098E+02 0.12085437319E+02 0.11135659745E+02
 0.10567784090E+02 0.10380522906E+02 0.10567784090E+02 0.11135659745E+02 0.12085437319E+02
 0.13374125098E+02 0.14880974840E+02 0.16407837446E+02 0.17719463447E+02 0.18602486693E+02
 0.13685847744E+02 0.13511339414E+02 0.13026577116E+02 0.12335991617E+02 0.11578957704E+02
 0.10892796003E+02 0.10384888833E+02 0.10125940647E+02 0.10166902764E+02 0.10567784090E+02
 0.11413314465E+02 0.12790298275E+02 0.14724426768E+02 0.17111444325E+02 0.19700950329E+02
 0.22568436140E+02 0.25884359904E+02 0.28719754346E+02 0.29846531368E+02 0.28719754346E+02
 0.25884359904E+02 0.22568436140E+02 0.19700950329E+02 0.17111444325E+02 0.14724426768E+02
 0.12790298275E+02 0.11413314465E+02 0.10567784090E+02 0.10166902764E+02 0.10125940647E+02
 0.10384888833E+02 0.10892796003E+02 0.11578957704E+02 0.12335991617E+02 0.13026577116E+02
 0.13511339414E+02 0.10288373497E+02 0.10213204405E+02 0.10013418906E+02 0.97530935393E+01
 0.95087820543E+01 0.93529678990E+01 0.93527749957E+01 0.95789951302E+01 0.10125940647E+02
 0.11135659745E+02 0.12790298275E+02 0.15231032333E+02 0.18423092041E+02 0.22362575082E+02
 0.28994657962E+02 0.39201411262E+02 0.50920389117E+02 0.60350550867E+02 0.63967139476E+02
 0.60350550867E+02 0.50920389117E+02 0.39201411262E+02 0.28994657962E+02 0.22362575082E+02
 0.18423092041E+02 0.15231032333E+02 0.12790298275E+02 0.11135659745E+02 0.10125940647E+02
 0.95789951302E+01 0.93527749957E+01 0.93529678990E+01 0.95087820543E+01 0.97530935393E+01
 0.10013418906E+02 0.10213204405E+02 0.82696043400E+01 0.82506372735E+01 0.82146199388E+01
 0.82051893679E+01 0.82615417472E+01 0.84227116038E+01 0.87519911271E+01 0.93527749957E+01
 0.10384888833E+02 0.12085437319E+02 0.14724426768E+02 0.18423092041E+02 0.23519115039E+02
 0.34197591517E+02 0.53757697865E+02 0.80639348417E+02 0.10887782330E+03 0.13043451375E+03
 0.13850539384E+03 0.13043451375E+03 0.10887782330E+03 0.80639348417E+02 0.53757697865E+02
 0.34197591517E+02 0.23519115039E+02 0.18423092041E+02 0.14724426768E+02 0.12085437319E+02
 0.10384888833E+02 0.93527749957E+01 0.87519911271E+01 0.84227116038E+01 0.82615417472E+01
 0.82051893679E+01 0.82146199388E+01 0.82506372735E+01 0.71167352948E+01 0.71230622615E+01
 0.71668477124E+01 0.72900405591E+01 0.75132770303E+01 0.78625848410E+01 0.84227116038E+01
 0.93529678990E+01 0.10892796003E+02 0.13374125098E+02 0.17111444325E+02 0.22362575082E+02
 0.34197591517E+02 0.60124294290E+02 0.10207469860E+03 0.15487596449E+03 0.20748473527E+03
 0.24648615899E+03 0.26090049919E+03 0.24648615899E+03 0.20748473527E+03 0.15487596449E+03
 0.10207469860E+03 0.60124294290E+02 0.34197591517E+02 0.22362575082E+02 0.17111444325E+02
 0.13374125098E+02 0.10892796003E+02 0.93529678990E+01 0.84227116038E+01 0.78625848410E+01
 0.75132770303E+01 0.72900405591E+01 0.71668477124E+01 0.71230622615E+01 0.63985527359E+01
 0.64155508743E+01 0.65006476888E+01 0.67038832325E+01 0.70343000229E+01 0.75132770303E+01
 0.82615417472E+01 0.95087820543E+01 0.11578957704E+02 0.14880974840E+02 0.19700950329E+02
 0.28994657962E+02 0.53757697865E+02 0.10207469860E+03 0.17379039225E+03 0.25952174968E+03
 0.34249431184E+03 0.40308620584E+03 0.42534000564E+03 0.40308620584E+03 0.34249431184E+03
 0.25952174968E+03 0.17379039225E+03 0.10207469860E+03 0.53757697865E+02 0.28994657962E+02
 0.19700950329E+02 0.14880974840E+02 0.11578957704E+02 0.95087820543E+01 0.82615417472E+01
 0.75132770303E+01 0.70343000229E+01 0.67038832325E+01 0.65006476888E+01 0.64155508743E+01
 0.58775348103E+01 0.59010754403E+01 0.60168899704E+01 0.62853809209E+01 0.67038832325E+01
 0.72900405591E+01 0.82051893679E+01 0.97530935393E+01 0.12335991617E+02 0.16407837446E+02
 0.22568436140E+02 0.39201411262E+02 0.80639348417E+02 0.15487596449E+03 0.25952174968E+03
 0.38107909927E+03 0.49702175925E+03 0.58114621810E+03 0.61197372605E+03 0.58114621810E+03
 0.49702175925E+03 0.38107909927E+03 0.25952174968E+03 0.15487596449E+03 0.80639348417E+02
 0.39201411262E+02 0.22568436140E+02 0.16407837446E+02 0.12335991617E+02 0.97530935393E+01
 0.82051893679E+01 0.72900405591E+01 0.67038832325E+01 0.62853809209E+01 0.60168899704E+01
 0.59010754403E+01 0.55379563509E+01 0.55646308323E+01 0.57006307177E+01 0.60168899704E+01
 0.65006476888E+01 0.71668477124E+01 0.82146199388E+01 0.10013418906E+02 0.13026577116E+02
 0.17719463447E+02 0.25884359904E+02 0.50920389117E+02 0.10887782330E+03 0.20748473527E+03
 0.34249431184E+03 0.49702175925E+03 0.64350686065E+03 0.74960856520E+03 0.78848393360E+03
 0.74960856520E+03 0.64350686065E+03 0.49702175925E+03 0.34249431184E+03 0.20748473527E+03
 0.10887782330E+03 0.50920389117E+02 0.25884359904E+02 0.17719463447E+02 0.13026577116E+02
 0.10013418906E+02 0.82146199388E+01 0.71668477124E+01 0.65006476888E+01 0.60168899704E+01
 0.57006307177E+01 0.55646308323E+01 0.53984751122E+01 0.54238964177E+01 0.55646308323E+01
 0.59010754403E+01 0.64155508743E+01 0.71230622615E+01 0.82506372735E+01 0.10213204405E+02
 0.13511339414E+02 0.18602486693E+02 0.28719754346E+02 0.60350550867E+02 0.13043451375E+03
 0.24648615899E+03 0.40308620584E+03 0.58114621810E+03 0.74960856520E+03 0.87164562928E+03
 0.91638200690E+03 0.87164562928E+03 0.74960856520E+03 0.58114621810E+03 0.40308620584E+03
 0.24648615899E+03 0.13043451375E+03 0.60350550867E+02 0.28719754346E+02 0.18602486693E+02
 0.13511339414E+02 0.10213204405E+02 0.82506372735E+01 0.71230622615E+01 0.64155508743E+01
 0.59010754403E+01 0.55646308323E+01 0.54238964177E+01 0.53745882621E+01 0.53984751122E+01
 0.55379563509E+01 0.58775348103E+01 0.63985527359E+01 0.71167352948E+01 0.82696043400E+01
 0.10288373497E+02 0.13685847744E+02 0.18913779446E+02 0.29846531368E+02 0.63967139476E+02
 0.13850539384E+03 0.26090049919E+03 0.42534000564E+03 0.61197372605E+03 0.78848393360E+03
 0.91638200690E+03 0.96327927030E+03 0.91638200690E+03 0.78848393360E+03 0.61197372605E+03
 0.42534000564E+03 0.26090049919E+03 0.13850539384E+03 0.63967139476E+02 0.29846531368E+02
 0.18913779446E+02 0.13685847744E+02 0.10288373497E+02 0.82696043400E+01 0.71167352948E+01
 0.63985527359E+01 0.58775348103E+01 0.55379563509E+01 0.53984751122E+01 0.53984751122E+01
 0.54238964177E+01 0.55646308323E+01 0.59010754403E+01 0.64155508743E+01 0.71230622615E+01
 0.82506372735E+01 0.10213204405E+02 0.13511339414E+02 0.18602486693E+02 0.28719754346E+02
 0.60350550867E+02 0.13043451375E+03 0.24648615899E+03 0.40308620584E+03 0.58114621810E+03
 0.74960856520E+03 0.87164562928E+03 0.91638200690E+03 0.87164562928E+03 0.74960856520E+03
 0.58114621810E+03 0.40308620584E+03 0.24648615899E+03 0.13043451375E+03 0.60350550867E+02
 0.28719754346E+02 0.18602486693E+02 0.13511339414E+02 0.10213204405E+02 0.82506372735E+01
 0.71230622615E+01 0.64155508743E+01 0.59010754403E+01 0.55646308323E+01 0.54238964177E+01
 0.55379563509E+01 0.55646308323E+01 0.57006307177E+01 0.60168899704E+01 0.65006476888E+01
 0.71668477124E+01 0.82146199388E+01 0.10013418906E+02 0.13026577116E+02 0.17719463447E+02
 0.25884359904E+02 0.50920389117E+02 0.10887782330E+03 0.20748473527E+03 0.34249431184E+03
 0.49702175925E+03 0.64350686065E+03 0.74960856520E+03 0.78848393360E+03 0.74960856520E+03
 0.64350686065E+03 0.49702175925E+03 0.34249431184E+03 0.20748473527E+03 0.10887782330E+03
 0.50920389117E+02 0.25884359904E+02 0.17719463447E+02 0.13026577116E+02 0.10013418906E+02
 0.82146199388E+01 0.71668477124E+01 0.65006476888E+01 0.60168899704E+01 0.57006307177E+01
 0.55646308323E+01 0.58775348103E+01 0.59010754403E+01 0.60168899704E+01 0.62853809209E+01
 0.67038832325E+01 0.72900405591E+01 0.82051893679E+01 0.97530935393E+01 0.12335991617E+02
 0.16407837446E+02 0.22568436140E+02 0.39201411262E+02 0.80639348417E+02 0.15487596449E+03
 0.25952174968E+03 0.38107909927E+03 0.49702175925E+03 0.58114621810E+03 0.61197372605E+03
 0.58114621810E+03 0.49702175925E+03 0.38107909927E+03 0.25952174968E+03 0.15487596449E+03
 0.80639348417E+02 0.39201411262E+02 0.22568436140E+02 0.16407837446E+02 0.12335991617E+02
 0.97530935393E+01 0.82051893679E+01 0.72900405591E+01 0.67038832325E+01 0.62853809209E+01
 0.60168899704E+01 0.59010754403E+01 0.63985527359E+01 0.64155508743E+01 0.65006476888E+01
 0.67038832325E+01 0.70343000229E+01 0.75132770303E+01 0.82615417472E+01 0.95087820543E+01
 0.11578957704E+02 0.14880974840E+02 0.19700950329E+02 0.28994657962E+02 0.53757697865E+02
 0.10207469860E+03 0.17379039225E+03 0.25952174968E+03 0.34249431184E+03 0.40308620584E+03
 0.42534000564E+03 0.40308620584E+03 0.34249431184E+03 0.25952174968E+03 0.17379039225E+03
 0.10207469860E+03 0.53757697865E+02 0.28994657962E+02 0.19700950329E+02 0.14880974840E+02
 0.11578957704E+02 0.95087820543E+01 0.82615417472E+01 0.75132770303E+01 0.70343000229E+01
 0.67038832325E+01 0.65006476888E+01 0.64155508743E+01 0.71167352948E+01 0.71230622615E+01
 0.71668477124E+01 0.72900405591E+01 0.75132770303E+01 0.78625848410E+01 0.84227116038E+01
 0.93529678990E+01 0.10892796003E+02 0.13374125098E+02 0.17111444325E+02 0.22362575082E+02
 0.34197591517E+02 0.60124294290E+02 0.10207469860E+03 0.15487596449E+03 0.20748473527E+03
 0.24648615899E+03 0.26090049919E+03 0.24648615899E+03 0.20748473527E+03 0.15487596449E+03
 0.10207469860E+03 0.60124294290E+02 0.34197591517E+02 0.22362575082E+02 0.17111444325E+02
 0.13374125098E+02 0.10892796003E+02 0.93529678990E+01 0.84227116038E+01 0.78625848410E+01
 0.75132770303E+01 0.72900405591E+01 0.71668477124E+01 0.71230622615E+01 0.82696043400E+01
 0.82506372735E+01 0.82146199388E+01 0.82051893679E+01 0.82615417472E+01 0.84227116038E+01
 0.87519911271E+01 0.93527749957E+01 0.10384888833E+02 0.12085437319E+02 0.14724426768E+02
 0.18423092041E+02 0.23519115039E+02 0.34197591517E+02 0.53757697865E+02 0.80639348417E+02
 0.10887782330E+03 0.13043451375E+03 0.13850539384E+03 0.13043451375E+03 0.10887782330E+03
 0.80639348417E+02 0.53757697865E+02 0.34197591517E+02 0.23519115039E+02 0.18423092041E+02
 0.14724426768E+02 0.12085437319E+02 0.10384888833E+02 0.93527749957E+01 0.87519911271E+01
 0.84227116038E+01 0.82615417472E+01 0.82051893679E+01 0.82146199388E+01 0.82506372735E+01
 0.10288373497E+02 0.10213204405E+02 0.10013418906E+02 0.97530935393E+01 0.95087820543E+01
 0.93529678990E+01 0.93527749957E+01 0.95789951302E+01 0.10125940647E+02 0.11135659745E+02
 0.12790298275E+02 0.15231032333E+02 0.18423092041E+02 0.22362575082E+02 0.28994657962E+02
 0.39201411262E+02 0.50920389117E+02 0.60350550867E+02 0.63967139476E+02 0.60350550867E+02
 0.50920389117E+02 0.39201411262E+02 0.28994657962E+02 0.22362575082E+02 0.18423092041E+02
 0.15231032333E+02 0.12790298275E+02 0.11135659745E+02 0.10125940647E+02 0.95789951302E+01
 0.93527749957E+01 0.93529678990E+01 0.95087820543E+01 0.97530935393E+01 0.10013418906E+02
 0.10213204405E+02 0.13685847744E+02 0.13511339414E+02 0.13026577116E+02 0.12335991617E+02
 0.11578957704E+02 0.10892796003E+02 0.10384888833E+02 0.10125940647E+02 0.10166902764E+02
 0.10567784090E+02 0.11413314465E+02 0.12790298275E+02 0.14724426768E+02 0.17111444325E+02
 0.19700950329E+02 0.22568436140E+02 0.25884359904E+02 0.28719754346E+02 0.29846531368E+02
 0.28719754346E+02 0.25884359904E+02 0.22568436140E+02 0.19700950329E+02 0.17111444325E+02
 0.14724426768E+02 0.12790298275E+02 0.11413314465E+02 0.10567784090E+02 0.10166902764E+02
 0.10125940647E+02 0.10384888833E+02 0.10892796003E+02 0.11578957704E+02 0.12335991617E+02
 0.13026577116E+02 0.13511339414E+02 0.18913779446E+02 0.18602486693E+02 0.17719463447E+02
 0.16407837446E+02 0.14880974840E+02 0.13374125098E+02 0.12085437319E+02 0.11135659745E+02
 0.10567784090E+02 0.10380522906E+02 0.10567784090E+02 0.11135659745E+02 0.12085437319E+02
 0.13374125098E+02 0.14880974840E+02 0.16407837446E+02 0.17719463447E+02 0.18602486693E+02
 0.18913779446E+02 0.18602486693E+02 0.17719463447E+02 0.16407837446E+02 0.14880974840E+02
 0.13374125098E+02 0.12085437319E+02 0.11135659745E+02 0.10567784090E+02 0.10380522906E+02
 0.10567784090E+02 0.11135659745E+02 0.12085437319E+02 0.13374125098E+02 0.14880974840E+02
 0.16407837446E+02 0.17719463447E+02 0.18602486693E+02 0.29846531368E+02 0.28719754346E+02
 0.25884359904E+02 0.22568436140E+02 0.19700950329E+02 0.17111444325E+02 0.14724426768E+02
 0.12790298275E+02 0.11413314465E+02 0.10567784090E+02 0.10166902764E+02 0.10125940647E+02
 0.10384888833E+02 0.10892796003E+02 0.11578957704E+02 0.12335991617E+02 0.13026577116E+02
 0.13511339414E+02 0.13685847744E+02 0.13511339414E+02 0.13026577116E+02 0.12335991617E+02
 0.11578957704E+02 0.10892796003E+02 0.10384888833E+02 0.10125940647E+02 0.10166902764E+02
 0.10567784090E+02 0.11413314465E+02 0.12790298275E+02 0.14724426768E+02 0.17111444325E+02
 0.19700950329E+02 0.22568436140E+02 0.25884359904E+02 0.28719754346E+02 0.63967139476E+02
 0.60350550867E+02 0.50920389117E+02 0.39201411262E+02 0.28994657962E+02 0.22362575082E+02
 0.18423092041E+02 0.15231032333E+02 0.12790298275E+02 0.11135659745E+02 0.10125940647E+02
 0.95789951302E+01 0.93527749957E+01 0.93529678990E+01 0.95087820543E+01 0.97530935393E+01
 0.10013418906E+02 0.10213204405E+02 0.10288373497E+02 0.10213204405E+02 0.10013418906E+02
 0.97530935393E+01 0.95087820543E+01 0.93529678990E+01 0.93527749957E+01 0.95789951302E+01
 0.10125940647E+02 0.11135659745E+02 0.12790298275E+02 0.15231032333E+02 0.18423092041E+02
 0.22362575082E+02 0.28994657962E+02 0.39201411262E+02 0.50920389117E+02 0.60350550867E+02
 0.13850539384E+03 0.13043451375E+03 0.10887782330E+03 0.80639348417E+02 0.53757697865E+02
 0.34197591517E+02 0.23519115039E+02 0.18423092041E+02 0.14724426768E+02 0.12085437319E+02
 0.10384888833E+02 0.93527749957E+01 0.87519911271E+01 0.84227116038E+01 0.82615417472E+01
 0.82051893679E+01 0.82146199388E+01 0.82506372735E+01 0.82696043400E+01 0.82506372735E+01
 0.82146199388E+01 0.82051893679E+01 0.82615417472E+01 0.84227116038E+01 0.87519911271E+01
 0.93527749957E+01 0.10384888833E+02 0.12085437319E+02 0.14724426768E+02 0.18423092041E+02
 0.23519115039E+02 0.34197591517E+02 0.53757697865E+02 0.80639348417E+02 0.10887782330E+03
 0.13043451375E+03 0.26090049919E+03 0.24648615899E+03 0.20748473527E+03 0.15487596449E+03
 0.10207469860E+03 0.60124294290E+02 0.34197591517E+02 0.22362575082E+02 0.17111444325E+02
 0.13374125098E+02 0.10892796003E+02 0.93529678990E+01 0.84227116038E+01 0.78625848410E+01
 0.75132770303E+01 0.72900405591E+01 0.71668477124E+01 0.71230622615E+01 0.71167352948E+01
 0.71230622615E+01 0.71668477124E+01 0.72900405591E+01 0.75132770303E+01 0.78625848410E+01
 0.84227116038E+01 0.93529678990E+01 0.10892796003E+02 0.13374125098E+02 0.17111444325E+02
 0.22362575082E+02 0.34197591517E+02 0.60124294290E+02 0.10207469860E+03 0.15487596449E+03
 0.20748473527E+03 0.24648615899E+03 0.42534000564E+03 0.40308620584E+03 0.34249431184E+03
 0.25952174968E+03 0.17379039225E+03 0.10207469860E+03 0.53757697865E+02 0.28994657962E+02
 0.19700950329E+02 0.14880974840E+02 0.11578957704E+02 0.95087820543E+01 0.82615417472E+01
 0.75132770303E+01 0.70343000229E+01 0.67038832325E+01 0.65006476888E+01 0.64155508743E+01
 0.63985527359E+01 0.64155508743E+01 0.65006476888E+01 0.67038832325E+01 0.70343000229E+01
 0.75132770303E+01 0.82615417472E+01 0.95087820543E+01 0.11578957704E+02 0.14880974840E+02
 0.19700950329E+02 0.28994657962E+02 0.53757697865E+02 0.10207469860E+03 0.17379039225E+03
 0.25952174968E+03 0.34249431184E+03 0.40308620584E+03 0.61197372605E+03 0.58114621810E+03
 0.49702175925E+03 0.38107909927E+03 0.25952174968E+03 0.15487596449E+03 0.80639348417E+02
 0.39201411262E+02 0.22568436140E+02 0.16407837446E+02 0.12335991617E+02 0.97530935393E+01
 0.82051893679E+01 0.72900405591E+01 0.67038832325E+01 0.62853809209E+01 0.60168899704E+01
 0.59010754403E+01 0.58775348103E+01 0.59010754403E+01 0.60168899704E+01 0.62853809209E+01
 0.67038832325E+01 0.72900405591E+01 0.82051893679E+01 0.97530935393E+01 0.12335991617E+02
 0.16407837446E+02 0.22568436140E+02 0.39201411262E+02 0.80639348417E+02 0.15487596449E+03
 0.25952174968E+03 0.38107909927E+03 0.49702175925E+03 0.58114621810E+03 0.78848393360E+03
 0.74960856520E+03 0.64350686065E+03 0.49702175925E+03 0.34249431184E+03 0.20748473527E+03
 0.10887782330E+03 0.50920389117E+02 0.25884359904E+02 0.17719463447E+02 0.13026577116E+02
 0.10013418906E+02 0.82146199388E+01 0.71668477124E+01 0.65006476888E+01 0.60168899704E+01
 0.57006307177E+01 0.55646308323E+01 0.55379563509E+01 0.55646308323E+01 0.57006307177E+01
 0.60168899704E+01 0.65006476888E+01 0.71668477124E+01 0.82146199388E+01 0.10013418906E+02
 0.13026577116E+02 0.17719463447E+02 0.25884359904E+02 0.50920389117E+02 0.10887782330E+03
 0.20748473527E+03 0.34249431184E+03 0.49702175925E+03 0.64350686065E+03 0.74960856520E+03
 0.91638200690E+03 0.87164562928E+03 0.74960856520E+03 0.58114621810E+03 0.40308620584E+03
 0.24648615899E+03 0.13043451375E+03 0.60350550867E+02 0.28719754346E+02 0.18602486693E+02
 0.13511339414E+02 0.10213204405E+02 0.82506372735E+01 0.71230622615E+01 0.64155508743E+01
 0.59010754403E+01 0.55646308323E+01 0.54238964177E+01 0.53984751122E+01 0.54238964177E+01
 0.55646308323E+01 0.59010754403E+01 0.64155508743E+01 0.71230622615E+01 0.82506372735E+01
 0.10213204405E+02 0.13511339414E+02 0.18602486693E+02 0.28719754346E+02 0.60350550867E+02
 0.13043451375E+03 0.24648615899E+03 0.40308620584E+03 0.58114621810E+03 0.74960856520E+03
 0.87164562928E+03 0.91638200690E+03 0.87164562928E+03 0.74960856520E+03 0.58114621810E+03
 0.40308620584E+03 0.24648615899E+03 0.13043451375E+03 0.60350550867E+02 0.28719754346E+02
 0.18602486693E+02 0.13511339414E+02 0.10213204405E+02 0.82506372735E+01 0.71230622615E+01
 0.64155508743E+01 0.59010754403E+01 0.55646308323E+01 0.54238964177E+01 0.53984751122E+01
 0.54238964177E+01 0.55646308323E+01 0.59010754403E+01 0.64155508743E+01 0.71230622615E+01
 0.82506372735E+01 0.10213204405E+02 0.13511339414E+02 0.18602486693E+02 0.28719754346E+02
 0.60350550867E+02 0.13043451375E+03 0.24648615899E+03 0.40308620584E+03 0.58114621810E+03
 0.74960856520E+03 0.87164562928E+03 0.87164562928E+03 0.82896525282E+03 0.71251139958E+03
 0.55173214904E+03 0.38187776720E+03 0.23279283310E+03 0.12281708617E+03 0.56977638130E+02
 0.27687197498E+02 0.18298199686E+02 0.13341408019E+02 0.10139957932E+02 0.82320567335E+01
 0.71294032056E+01 0.64327899118E+01 0.59252063587E+01 0.55922708938E+01 0.54506700308E+01
 0.54238964177E+01 0.54506700308E+01 0.55922708938E+01 0.59252063587E+01 0.64327899118E+01
 0.71294032056E+01 0.82320567335E+01 0.10139957932E+02 0.13341408019E+02 0.18298199686E+02
 0.27687197498E+02 0.56977638130E+02 0.12281708617E+03 0.23279283310E+03 0.38187776720E+03
 0.55173214904E+03 0.71251139958E+03 0.82896525282E+03 0.74960856520E+03 0.71251139958E+03
 0.61125484009E+03 0.47147688442E+03 0.32415904091E+03 0.19577439249E+03 0.10250006790E+03
 0.48201801261E+02 0.25091555451E+02 0.17434847401E+02 0.12869487667E+02 0.99451803830E+01
 0.81964487001E+01 0.71721612884E+01 0.65169975329E+01 0.60405758790E+01 0.57283942924E+01
 0.55922708938E+01 0.55646308323E+01 0.55922708938E+01 0.57283942924E+01 0.60405758790E+01
 0.65169975329E+01 0.71721612884E+01 0.81964487001E+01 0.99451803830E+01 0.12869487667E+02
 0.17434847401E+02 0.25091555451E+02 0.48201801261E+02 0.10250006790E+03 0.19577439249E+03
 0.32415904091E+03 0.47147688442E+03 0.61125484009E+03 0.71251139958E+03 0.58114621810E+03
 0.55173214904E+03 0.47147688442E+03 0.36093159823E+03 0.24521659220E+03 0.14594143989E+03
 0.75969159999E+02 0.37345931910E+02 0.22050334223E+02 0.16154543284E+02 0.12197613491E+02
 0.96912941144E+01 0.81862759479E+01 0.72919077169E+01 0.67162182252E+01 0.63048865763E+01
 0.60405758790E+01 0.59252063587E+01 0.59010754403E+01 0.59252063587E+01 0.60405758790E+01
 0.63048865763E+01 0.67162182252E+01 0.72919077169E+01 0.81862759479E+01 0.96912941144E+01
 0.12197613491E+02 0.16154543284E+02 0.22050334223E+02 0.37345931910E+02 0.75969159999E+02
 0.14594143989E+03 0.24521659220E+03 0.36093159823E+03 0.47147688442E+03 0.55173214904E+03
 0.40308620584E+03 0.38187776720E+03 0.32415904091E+03 0.24521659220E+03 0.16385490872E+03
 0.96115748930E+02 0.50854263378E+02 0.27955892347E+02 0.19360686382E+02 0.14667224133E+02
 0.11461871752E+02 0.94532486384E+01 0.82403865905E+01 0.75095116963E+01 0.70399937355E+01
 0.67162182252E+01 0.65169975329E+01 0.64327899118E+01 0.64155508743E+01 0.64327899118E+01
 0.65169975329E+01 0.67162182252E+01 0.70399937355E+01 0.75095116963E+01 0.82403865905E+01
 0.94532486384E+01 0.11461871752E+02 0.14667224133E+02 0.19360686382E+02 0.27955892347E+02
 0.50854263378E+02 0.96115748930E+02 0.16385490872E+03 0.24521659220E+03 0.32415904091E+03
 0.38187776720E+03 0.24648615899E+03 0.23279283310E+03 0.19577439249E+03 0.14594143989E+03
 0.96115748930E+02 0.56789696940E+02 0.32741988872E+02 0.21871434372E+02 0.16834744447E+02
 0.13202624014E+02 0.10796034053E+02 0.93019924322E+01 0.83973799893E+01 0.78508726478E+01
 0.75095116963E+01 0.72919077169E+01 0.71721612884E+01 0.71294032056E+01 0.71230622615E+01
 0.71294032056E+01 0.71721612884E+01 0.72919077169E+01 0.75095116963E+01 0.78508726478E+01
 0.83973799893E+01 0.93019924322E+01 0.10796034053E+02 0.13202624014E+02 0.16834744447E+02
 0.21871434372E+02 0.32741988872E+02 0.56789696940E+02 0.96115748930E+02 0.14594143989E+03
 0.19577439249E+03 0.23279283310E+03 0.13043451375E+03 0.12281708617E+03 0.10250006790E+03
 0.75969159999E+02 0.50854263378E+02 0.32741988872E+02 0.22942103107E+02 0.18110955115E+02
 0.14512393951E+02 0.11952666179E+02 0.10304196416E+02 0.93026261084E+01 0.87183672066E+01
 0.83973799893E+01 0.82403865905E+01 0.81862759479E+01 0.81964487001E+01 0.82320567335E+01
 0.82506372735E+01 0.82320567335E+01 0.81964487001E+01 0.81862759479E+01 0.82403865905E+01
 0.83973799893E+01 0.87183672066E+01 0.93026261084E+01 0.10304196416E+02 0.11952666179E+02
 0.14512393951E+02 0.18110955115E+02 0.22942103107E+02 0.32741988872E+02 0.50854263378E+02
 0.75969159999E+02 0.10250006790E+03 0.12281708617E+03 0.60350550867E+02 0.56977638130E+02
 0.48201801261E+02 0.37345931910E+02 0.27955892347E+02 0.21871434372E+02 0.18110955115E+02
 0.15003869462E+02 0.12636109448E+02 0.11033043428E+02 0.10054345162E+02 0.95231977935E+01
 0.93026261084E+01 0.93019924322E+01 0.94532486384E+01 0.96912941144E+01 0.99451803830E+01
 0.10139957932E+02 0.10213204405E+02 0.10139957932E+02 0.99451803830E+01 0.96912941144E+01
 0.94532486384E+01 0.93019924322E+01 0.93026261084E+01 0.95231977935E+01 0.10054345162E+02
 0.11033043428E+02 0.12636109448E+02 0.15003869462E+02 0.18110955115E+02 0.21871434372E+02
 0.27955892347E+02 0.37345931910E+02 0.48201801261E+02 0.56977638130E+02 0.28719754346E+02
 0.27687197498E+02 0.25091555451E+02 0.22050334223E+02 0.19360686382E+02 0.16834744447E+02
 0.14512393951E+02 0.12636109448E+02 0.11302547159E+02 0.10483891747E+02 0.10095096653E+02
 0.10054345162E+02 0.10304196416E+02 0.10796034053E+02 0.11461871752E+02 0.12197613491E+02
 0.12869487667E+02 0.13341408019E+02 0.13511339414E+02 0.13341408019E+02 0.12869487667E+02
 0.12197613491E+02 0.11461871752E+02 0.10796034053E+02 0.10304196416E+02 0.10054345162E+02
 0.10095096653E+02 0.10483891747E+02 0.11302547159E+02 0.12636109448E+02 0.14512393951E+02
 0.16834744447E+02 0.19360686382E+02 0.22050334223E+02 0.25091555451E+02 0.27687197498E+02
 0.18602486693E+02 0.18298199686E+02 0.17434847401E+02 0.16154543284E+02 0.14667224133E+02