   4   4   0   0
  0.1600000E+02  0.4000000E-09  0.4000000E-09  0.4000000E-09  0.5000000E-15
  1.000000000000000E-004
  CAR 
 fcc Cu                                  
      9.86217543     -6.40621416  301      1.55683550      1.00000000
     -6.406  0.0000E+00  0.0000E+00
     -6.352  0.0000E+00  0.0000E+00
     -6.298  0.0000E+00  0.0000E+00
     -6.244  0.0000E+00  0.0000E+00
     -6.189  0.0000E+00  0.0000E+00
     -6.135  0.0000E+00  0.0000E+00
     -6.081  0.0000E+00  0.0000E+00
     -6.027  0.0000E+00  0.0000E+00
     -5.972  0.0000E+00  0.0000E+00
     -5.918  0.9818E-13  0.5324E-14
     -5.864  0.2084E-08  0.1130E-09
     -5.810  0.4491E-05  0.2436E-06
     -5.755  0.1027E-02  0.5592E-04
     -5.701  0.2706E-01  0.1523E-02
     -5.647  0.9366E-01  0.6602E-02
     -5.593  0.6658E-01  0.1021E-01
     -5.539  0.1955E+00  0.2081E-01
     -5.484  0.2547E+00  0.3463E-01
     -5.430  0.1302E+00  0.4169E-01
     -5.376  0.2826E+00  0.5701E-01
     -5.322  0.1664E+00  0.6603E-01
     -5.267  0.2778E+00  0.8110E-01
     -5.213  0.3346E+00  0.9924E-01
     -5.159  0.2509E+00  0.1128E+00
     -5.105  0.5709E+00  0.1438E+00
     -5.051  0.2720E+00  0.1586E+00
     -4.996  0.2430E+00  0.1717E+00
     -4.942  0.2337E+00  0.1844E+00
     -4.888  0.2815E+00  0.1997E+00
     -4.834  0.5714E+00  0.2307E+00
     -4.779  0.3451E+00  0.2494E+00
     -4.725  0.7900E+00  0.2922E+00
     -4.671  0.5544E+00  0.3223E+00
     -4.617  0.2344E+00  0.3350E+00
     -4.562  0.2697E+00  0.3496E+00
     -4.508  0.2894E+00  0.3653E+00
     -4.454  0.6691E+00  0.4016E+00
     -4.400  0.4087E+00  0.4238E+00
     -4.346  0.7682E+00  0.4654E+00
     -4.291  0.6047E+00  0.4982E+00
     -4.237  0.3990E+00  0.5198E+00
     -4.183  0.5588E+00  0.5501E+00
     -4.129  0.5033E+00  0.5774E+00
     -4.074  0.8544E+00  0.6238E+00
     -4.020  0.4832E+00  0.6500E+00
     -3.966  0.8317E+00  0.6951E+00
     -3.912  0.5533E+00  0.7251E+00
     -3.857  0.5340E+00  0.7540E+00
     -3.803  0.4681E+00  0.7794E+00
     -3.749  0.4790E+00  0.8054E+00
     -3.695  0.5069E+00  0.8329E+00
     -3.641  0.8560E+00  0.8793E+00
     -3.586  0.1383E+01  0.9543E+00
     -3.532  0.8063E+00  0.9980E+00
     -3.478  0.8610E+00  0.1045E+01
     -3.424  0.4912E+00  0.1071E+01
     -3.369  0.7204E+00  0.1110E+01
     -3.315  0.9710E+00  0.1163E+01
     -3.261  0.9971E+00  0.1217E+01
     -3.207  0.3469E+00  0.1236E+01
     -3.153  0.3528E+00  0.1255E+01
     -3.098  0.8588E+00  0.1302E+01
     -3.044  0.1641E+01  0.1391E+01
     -2.990  0.1341E+01  0.1463E+01
     -2.936  0.1351E+01  0.1537E+01
     -2.881  0.7364E+00  0.1577E+01
     -2.827  0.7935E+00  0.1620E+01
     -2.773  0.9698E+00  0.1672E+01
     -2.719  0.1066E+01  0.1730E+01
     -2.664  0.1457E+01  0.1809E+01
     -2.610  0.1479E+01  0.1889E+01
     -2.556  0.9768E+00  0.1942E+01
     -2.502  0.1457E+01  0.2021E+01
     -2.448  0.1772E+01  0.2117E+01
     -2.393  0.1814E+01  0.2216E+01
     -2.339  0.1548E+01  0.2300E+01
     -2.285  0.1306E+01  0.2370E+01
     -2.231  0.1914E+01  0.2474E+01
     -2.176  0.3182E+01  0.2647E+01
     -2.122  0.3778E+01  0.2852E+01
     -2.068  0.2910E+01  0.3009E+01
     -2.014  0.2830E+01  0.3163E+01
     -1.960  0.4031E+01  0.3381E+01
     -1.905  0.4997E+01  0.3652E+01
     -1.851  0.5986E+01  0.3977E+01
     -1.797  0.6255E+01  0.4316E+01
     -1.743  0.5916E+01  0.4637E+01
     -1.688  0.7728E+01  0.5056E+01
     -1.634  0.6880E+01  0.5429E+01
     -1.580  0.8065E+01  0.5867E+01
     -1.526  0.1110E+02  0.6468E+01
     -1.471  0.1101E+02  0.7066E+01
     -1.417  0.1376E+02  0.7812E+01
     -1.363  0.1367E+02  0.8553E+01
     -1.309  0.1303E+02  0.9260E+01
     -1.255  0.1294E+02  0.9961E+01
     -1.200  0.1274E+02  0.1065E+02
     -1.146  0.1334E+02  0.1138E+02
     -1.092  0.1370E+02  0.1212E+02
     -1.038  0.1430E+02  0.1289E+02
     -0.983  0.1606E+02  0.1376E+02
     -0.929  0.1907E+02  0.1480E+02
     -0.875  0.2084E+02  0.1593E+02
     -0.821  0.1983E+02  0.1700E+02
     -0.767  0.2373E+02  0.1829E+02
     -0.712  0.2656E+02  0.1973E+02
     -0.658  0.2895E+02  0.2130E+02
     -0.604  0.2847E+02  0.2284E+02
     -0.550  0.2274E+02  0.2408E+02
     -0.495  0.1917E+02  0.2512E+02
     -0.441  0.1717E+02  0.2605E+02
     -0.387  0.1769E+02  0.2701E+02
     -0.333  0.2042E+02  0.2812E+02
     -0.278  0.2393E+02  0.2941E+02
     -0.224  0.2403E+02  0.3072E+02
     -0.170  0.2365E+02  0.3200E+02
     -0.116  0.2176E+02  0.3318E+02
     -0.062  0.2056E+02  0.3429E+02
     -0.007  0.2228E+02  0.3550E+02
      0.047  0.2641E+02  0.3693E+02
      0.101  0.3304E+02  0.3873E+02
      0.155  0.3168E+02  0.4044E+02
      0.210  0.1921E+02  0.4149E+02
      0.264  0.7181E+01  0.4187E+02
      0.318  0.1852E+01  0.4198E+02
      0.372  0.1817E+01  0.4207E+02
      0.427  0.2456E+01  0.4221E+02
      0.481  0.2890E+01  0.4236E+02
      0.535  0.1645E+01  0.4245E+02
      0.589  0.1089E+01  0.4251E+02
      0.643  0.8412E+00  0.4256E+02
      0.698  0.1714E+01  0.4265E+02
      0.752  0.3054E+01  0.4282E+02
      0.806  0.2249E+01  0.4294E+02
      0.860  0.1621E+01  0.4303E+02
      0.915  0.1395E+01  0.4310E+02
      0.969  0.6222E+00  0.4314E+02
      1.023  0.8918E+00  0.4318E+02
      1.077  0.1261E+01  0.4325E+02
      1.131  0.1189E+01  0.4332E+02
      1.186  0.1863E+01  0.4342E+02
      1.240  0.2307E+01  0.4354E+02
      1.294  0.2301E+01  0.4367E+02
      1.348  0.1337E+01  0.4374E+02
      1.403  0.1043E+01  0.4380E+02
      1.457  0.1171E+01  0.4386E+02
      1.511  0.1477E+01  0.4394E+02
      1.565  0.1281E+01  0.4401E+02
      1.620  0.1248E+01  0.4408E+02
      1.674  0.8900E+00  0.4413E+02
      1.728  0.9823E+00  0.4418E+02
      1.782  0.1742E+01  0.4427E+02
      1.836  0.2288E+01  0.4440E+02
      1.891  0.1593E+01  0.4448E+02
      1.945  0.1325E+01  0.4456E+02
      1.999  0.1055E+01  0.4461E+02
      2.053  0.1632E+01  0.4470E+02
      2.108  0.2025E+01  0.4481E+02
      2.162  0.1192E+01  0.4488E+02
      2.216  0.2527E+00  0.4489E+02
      2.270  0.3785E+00  0.4491E+02
      2.324  0.8646E+00  0.4496E+02
      2.379  0.7242E+00  0.4500E+02
      2.433  0.1559E+01  0.4508E+02
      2.487  0.1527E+01  0.4516E+02
      2.541  0.2282E+01  0.4529E+02
      2.596  0.2732E+01  0.4544E+02
      2.650  0.1158E+01  0.4550E+02
      2.704  0.7789E+00  0.4554E+02
      2.758  0.8539E+00  0.4559E+02
      2.813  0.7440E+00  0.4563E+02
      2.867  0.1255E+01  0.4570E+02
      2.921  0.1079E+01  0.4575E+02
      2.975  0.1227E+01  0.4582E+02
      3.029  0.1054E+01  0.4588E+02
      3.084  0.3549E+00  0.4590E+02
      3.138  0.8008E+00  0.4594E+02
      3.192  0.1391E+01  0.4602E+02
      3.246  0.1232E+01  0.4608E+02
      3.301  0.1076E+01  0.4614E+02
      3.355  0.1321E+01  0.4621E+02
      3.409  0.1344E+01  0.4629E+02
      3.463  0.1644E+01  0.4637E+02
      3.518  0.1509E+01  0.4646E+02
      3.572  0.9550E+00  0.4651E+02
      3.626  0.9328E+00  0.4656E+02
      3.680  0.1351E+01  0.4663E+02
      3.734  0.1138E+01  0.4669E+02
      3.789  0.7292E+00  0.4673E+02
      3.843  0.3199E+00  0.4675E+02
      3.897  0.4955E+00  0.4678E+02
      3.951  0.1217E+01  0.4684E+02
      4.006  0.8890E+00  0.4689E+02
      4.060  0.5616E+00  0.4692E+02
      4.114  0.8630E+00  0.4697E+02
      4.168  0.2248E+01  0.4709E+02
      4.222  0.2074E+01  0.4720E+02
      4.277  0.1091E+01  0.4726E+02
      4.331  0.1199E+01  0.4733E+02
      4.385  0.1047E+01  0.4738E+02
      4.439  0.1459E+01  0.4746E+02
      4.494  0.1492E+01  0.4754E+02
      4.548  0.1799E+01  0.4764E+02
      4.602  0.1697E+01  0.4773E+02
      4.656  0.7659E+00  0.4778E+02
      4.711  0.1041E+01  0.4783E+02
      4.765  0.1761E+01  0.4793E+02
      4.819  0.1397E+01  0.4800E+02
      4.873  0.1233E+01  0.4807E+02
      4.927  0.6575E+00  0.4811E+02
      4.982  0.9990E+00  0.4816E+02
      5.036  0.7720E+00  0.4820E+02
      5.090  0.1015E+01  0.4826E+02
      5.144  0.2423E+01  0.4839E+02
      5.199  0.1191E+01  0.4845E+02
      5.253  0.7653E+00  0.4849E+02
      5.307  0.1536E+01  0.4858E+02
      5.361  0.1736E+01  0.4867E+02
      5.415  0.1141E+01  0.4873E+02
      5.470  0.1362E+01  0.4881E+02
      5.524  0.6068E+00  0.4884E+02
      5.578  0.2014E+00  0.4885E+02
      5.632  0.1214E+01  0.4892E+02
      5.687  0.1534E+01  0.4900E+02
      5.741  0.1328E+01  0.4907E+02
      5.795  0.2258E+01  0.4919E+02
      5.849  0.1511E+01  0.4928E+02
      5.904  0.6210E+00  0.4931E+02
      5.958  0.9174E-01  0.4932E+02
      6.012  0.1831E+00  0.4932E+02
      6.066  0.9141E+00  0.4937E+02
      6.120  0.1073E+01  0.4943E+02
      6.175  0.8516E+00  0.4948E+02
      6.229  0.1189E+01  0.4954E+02
      6.283  0.1738E+01  0.4964E+02
      6.337  0.1323E+01  0.4971E+02
      6.392  0.3825E+00  0.4973E+02
      6.446  0.5988E+00  0.4976E+02
      6.500  0.9917E+00  0.4982E+02
      6.554  0.1940E+01  0.4992E+02
      6.608  0.8922E+00  0.4997E+02
      6.663  0.3951E+00  0.4999E+02
      6.717  0.1111E+01  0.5005E+02
      6.771  0.9340E+00  0.5010E+02
      6.825  0.1911E+00  0.5011E+02
      6.880  0.3511E+00  0.5013E+02
      6.934  0.1000E+01  0.5019E+02
      6.988  0.1632E+01  0.5027E+02
      7.042  0.1944E+01  0.5038E+02
      7.097  0.1943E+01  0.5049E+02
      7.151  0.1307E+01  0.5056E+02
      7.205  0.1039E+01  0.5061E+02
      7.259  0.1055E+01  0.5067E+02
      7.313  0.8221E+00  0.5071E+02
      7.368  0.9988E+00  0.5077E+02
      7.422  0.1912E+01  0.5087E+02
      7.476  0.1104E+01  0.5093E+02
      7.530  0.3741E+00  0.5095E+02
      7.585  0.5943E+00  0.5098E+02
      7.639  0.1457E+01  0.5106E+02
      7.693  0.1634E+01  0.5115E+02
      7.747  0.1485E+01  0.5123E+02
      7.802  0.1180E+01  0.5130E+02
      7.856  0.8866E+00  0.5134E+02
      7.910  0.9325E+00  0.5140E+02
      7.964  0.1100E+01  0.5145E+02
      8.018  0.1052E+01  0.5151E+02
      8.073  0.5350E+00  0.5154E+02
      8.127  0.5872E+00  0.5157E+02
      8.181  0.3476E+00  0.5159E+02
      8.235  0.1859E+00  0.5160E+02
      8.290  0.4379E+00  0.5163E+02
      8.344  0.5493E+00  0.5166E+02
      8.398  0.1030E+01  0.5171E+02
      8.452  0.2525E+01  0.5185E+02
      8.506  0.1186E+01  0.5191E+02
      8.561  0.7992E-01  0.5192E+02
      8.615  0.6713E-03  0.5192E+02
      8.669  0.1294E-05  0.5192E+02
      8.723  0.4008E-03  0.5192E+02
      8.778  0.2822E-01  0.5192E+02
      8.832  0.2821E+00  0.5193E+02
      8.886  0.5139E+00  0.5196E+02
      8.940  0.1879E+00  0.5197E+02
      8.995  0.1191E-01  0.5197E+02
      9.049  0.9369E-02  0.5197E+02
      9.103  0.1384E+00  0.5198E+02
      9.157  0.2802E+00  0.5200E+02
      9.211  0.8118E-01  0.5200E+02
      9.266  0.3080E-02  0.5200E+02
      9.320  0.1347E-04  0.5200E+02
      9.374  0.6251E-08  0.5200E+02
      9.428  0.2945E-12  0.5200E+02
      9.483  0.0000E+00  0.5200E+02
      9.537  0.0000E+00  0.5200E+02
      9.591  0.0000E+00  0.5200E+02
      9.645  0.0000E+00  0.5200E+02
      9.699  0.0000E+00  0.5200E+02
      9.754  0.0000E+00  0.5200E+02
      9.808  0.0000E+00  0.5200E+02
      9.862  0.0000E+00  0.5200E+02
