    4    4    1    1
  0.1600000E+02  0.4000000E-09  0.4000000E-09  0.4000000E-09  0.5000000E-15
  1.000000000000000E-004
  CAR 
 fcc Cu                                  
     44     56     26
 
  0.4166667E-01  0.4166667E-01  0.4166667E-01  0.4629630E-02
      1         -5.666742   1.000000
      2         -1.870657   1.000000
      3         -1.870657   1.000000
      4         -1.870657   1.000000
      5         -1.591756   1.000000
      6         -1.591756   1.000000
      7         -1.591756   1.000000
      8         -0.753311   1.000000
      9         -0.737737   1.000000
     10         -0.737737   1.000000
     11         -0.232375   1.000000
     12         -0.232375   1.000000
     13          0.105323   1.000000
     14          0.105323   1.000000
     15          0.105323   1.000000
     16          0.170846   1.000000
     17          0.170846   1.000000
     18          0.170846   1.000000
     19          0.204803   1.000000
     20          0.204803   1.000000
     21          0.204803   1.000000
     22          3.194495   0.000000
     23          3.194495   0.000000
     24          3.194496   0.000000
     25          6.971219   0.000000
     26          6.971219   0.000000
 
  0.1250000E+00  0.4166667E-01  0.4166667E-01  0.1388889E-01
      1         -5.531064   1.000000
      2         -1.879673   1.000000
      3         -1.817569   1.000000
      4         -1.817569   1.000000
      5         -1.563794   1.000000
      6         -1.561078   1.000000
      7         -1.561078   1.000000
      8         -0.780555   1.000000
      9         -0.714648   1.000000
     10         -0.713243   1.000000
     11         -0.258649   1.000000
     12         -0.220151   1.000000
     13          0.025582   1.000000
     14          0.025582   1.000000
     15          0.076157   1.000000
     16          0.076157   1.000000
     17          0.086274   1.000000
     18          0.124596   1.000000
     19          0.171444   1.000000
     20          0.202659   1.000000
     21          0.202659   1.000000
     22          2.300917   0.000000
     23          3.457745   0.000000
     24          3.457745   0.000000
     25          7.043052   0.000000
     26          7.043053   0.000000
 
  0.2083333E+00  0.4166667E-01  0.4166667E-01  0.1388889E-01
      1         -5.261881   1.000000
      2         -1.926464   1.000000
      3         -1.719331   1.000000
      4         -1.719331   1.000000
      5         -1.509618   1.000000
      6         -1.499249   1.000000
      7         -1.499249   1.000000
      8         -0.836762   1.000000
      9         -0.665677   1.000000
     10         -0.664844   1.000000
     11         -0.307490   1.000000
     12         -0.200173   1.000000
     13         -0.200173   1.000000
     14         -0.196458   1.000000
     15          0.009184   1.000000
     16          0.009184   1.000000
     17          0.032744   1.000000
     18          0.039704   1.000000
     19          0.119322   1.000000
     20          0.202232   1.000000
     21          0.202232   1.000000
     22          1.261106   1.000000
     23          3.924934   0.000000
     24          3.924934   0.000000
     25          7.190559   0.000000
     26          7.190559   0.000000
 
  0.2916667E+00  0.4166667E-01  0.4166667E-01  0.1388889E-01
      1         -4.864348   1.000000
      2         -2.087626   1.000000
      3         -1.592666   1.000000
      4         -1.592666   1.000000
      5         -1.432676   1.000000
      6         -1.405754   1.000000
      7         -1.405754   1.000000
      8         -0.916313   1.000000
      9         -0.596025   1.000000
     10         -0.593784   1.000000
     11         -0.455344   1.000000
     12         -0.455344   1.000000
     13         -0.369266   1.000000
     14         -0.162773   1.000000
     15         -0.117799   1.000000
     16         -0.078955   1.000000
     17         -0.078955   1.000000
     18         -0.046015   1.000000
     19          0.069702   1.000000
     20          0.202235   1.000000
     21          0.202235   1.000000
     22          0.416817   1.000000
     23          4.535921   0.000000
     24          4.535921   0.000000
     25          7.418286   0.000000
     26          7.418286   0.000000
 
  0.3750000E+00  0.4166667E-01  0.4166667E-01  0.1388889E-01
      1         -4.348754   1.000000
      2         -2.475248   1.000000
      3         -1.465519   1.000000
      4         -1.465519   1.000000
      5         -1.337899   1.000000
      6         -1.280450   1.000000
      7         -1.280450   1.000000
      8         -1.013352   1.000000
      9         -0.703985   1.000000
     10         -0.703985   1.000000
     11         -0.527969   1.000000
     12         -0.502579   1.000000
     13         -0.411067   1.000000
     14         -0.356206   1.000000
     15         -0.171291   1.000000
     16         -0.171291   1.000000
     17         -0.157009   1.000000
     18         -0.121327   1.000000
     19         -0.020507   1.000000
     20          0.022930   1.000000
     21          0.202402   1.000000
     22          0.202402   1.000000
     23          5.252380   0.000000
     24          5.252380   0.000000
     25          7.654887   0.000000
     26          7.654892   0.000000
 
  0.4583333E+00  0.4166667E-01  0.4166667E-01  0.1388889E-01
      1         -3.736403   1.000000
      2         -3.075625   1.000000
      3         -1.380402   1.000000
      4         -1.380402   1.000000
      5         -1.231684   1.000000
      6         -1.122873   1.000000
      7         -1.122873   1.000000
      8         -1.120981   1.000000
      9         -0.928178   1.000000
     10         -0.928178   1.000000
     11         -0.529613   1.000000
     12         -0.509714   1.000000
     13         -0.395497   1.000000
     14         -0.343593   1.000000
     15         -0.277664   1.000000
     16         -0.234873   1.000000
     17         -0.234873   1.000000
     18         -0.210777   1.000000
     19         -0.074794   1.000000
     20         -0.025859   1.000000
     21          0.202457   1.000000
     22          0.202457   1.000000
     23          6.051953   0.000000
     24          6.051953   0.000000
     25          6.919534   0.000000
     26          6.919535   0.000000
 
  0.1250000E+00  0.1250000E+00  0.4166667E-01  0.1388889E-01
      1         -5.396309   1.000000
      2         -1.823495   1.000000
      3         -1.823495   1.000000
      4         -1.768253   1.000000
      5         -1.534188   1.000000
      6         -1.534188   1.000000
      7         -1.531700   1.000000
      8         -0.795933   1.000000
      9         -0.701888   1.000000
     10         -0.694237   1.000000
     11         -0.264420   1.000000
     12         -0.223210   1.000000
     13         -0.068355   1.000000
     14         -0.044965   1.000000
     15         -0.044965   1.000000
     16          0.036468   1.000000
     17          0.069528   1.000000
     18          0.069528   1.000000
     19          0.170916   1.000000
     20          0.170916   1.000000
     21          0.181597   1.000000
     22          2.549538   0.000000
     23          2.549539   0.000000
     24          3.701872   0.000000
     25          7.116345   0.000000
     26          8.252940   0.000000
 
  0.2083333E+00  0.1250000E+00  0.4166667E-01  0.2777778E-01
      1         -5.129099   1.000000
      2         -1.863410   1.000000
      3         -1.719297   1.000000
      4         -1.677244   1.000000
      5         -1.482065   1.000000
      6         -1.474547   1.000000
      7         -1.472729   1.000000
      8         -0.842837   1.000000
      9         -0.660181   1.000000
     10         -0.656820   1.000000
     11         -0.302252   1.000000
     12         -0.278867   1.000000
     13         -0.258930   1.000000
     14         -0.199097   1.000000
     15         -0.165183   1.000000
     16         -0.023015   1.000000
     17          0.010053   1.000000
     18          0.022861   1.000000
     19          0.122367   1.000000
     20          0.166561   1.000000
     21          0.168561   1.000000
     22          1.520791   0.846018
     23          2.973583   0.000000
     24          4.144190   0.000000
     25          7.262504   0.000000
     26          8.437117   0.000000
 
  0.2916667E+00  0.1250000E+00  0.4166667E-01  0.2777778E-01
      1         -4.734802   1.000000
      2         -2.012877   1.000000
      3         -1.584174   1.000000
      4         -1.558706   1.000000
      5         -1.408160   1.000000
      6         -1.386110   1.000000
      7         -1.384583   1.000000
      8         -0.916106   1.000000
      9         -0.609700   1.000000
     10         -0.592286   1.000000
     11         -0.531514   1.000000
     12         -0.487956   1.000000
     13         -0.349230   1.000000
     14         -0.341022   1.000000
     15         -0.157434   1.000000
     16         -0.102850   1.000000
     17         -0.073919   1.000000
     18         -0.065778   1.000000
     19          0.068031   1.000000
     20          0.162860   1.000000
     21          0.163525   1.000000
     22          0.698925   1.000000
     23          3.513026   0.000000
     24          4.733045   0.000000
     25          7.357736   0.000000
     26          7.731135   0.000000
 
  0.3750000E+00  0.1250000E+00  0.4166667E-01  0.2777778E-01
      1         -4.224212   1.000000
      2         -2.384929   1.000000
      3         -1.445743   1.000000
      4         -1.432381   1.000000
      5         -1.317265   1.000000
      6         -1.280552   1.000000
      7         -1.265248   1.000000
      8         -1.007591   1.000000
      9         -0.769982   1.000000
     10         -0.716868   1.000000
     11         -0.582783   1.000000
     12         -0.524705   1.000000
     13         -0.505630   1.000000
     14         -0.357684   1.000000
     15         -0.186813   1.000000
     16         -0.176947   1.000000
     17         -0.165391   1.000000
     18         -0.104469   1.000000
     19         -0.009301   1.000000
     20          0.160707   1.000000
     21          0.161796   1.000000
     22          0.225998   1.000000
     23          4.141084   0.000000
     24          5.432161   0.000000
     25          6.529097   0.000000
     26          7.915524   0.000000
 
  0.4583333E+00  0.1250000E+00  0.4166667E-01  0.2777778E-01
      1         -3.619470   1.000000
      2         -2.970056   1.000000
      3         -1.346818   1.000000
      4         -1.340324   1.000000
      5         -1.215551   1.000000
      6         -1.159416   1.000000
      7         -1.123255   1.000000
      8         -1.109869   1.000000
      9         -0.972634   1.000000
     10         -0.923653   1.000000
     11         -0.608496   1.000000
     12         -0.602179   1.000000
     13         -0.404996   1.000000
     14         -0.293601   1.000000
     15         -0.280720   1.000000
     16         -0.241538   1.000000
     17         -0.233151   1.000000
     18         -0.144526   1.000000
     19         -0.041582   1.000000
     20          0.040456   1.000000
     21          0.160122   1.000000
     22          0.160569   1.000000
     23          4.850927   0.000000
     24          5.645827   0.000000
     25          6.219866   0.000000
     26          7.082056   0.000000
 
  0.2083333E+00  0.2083333E+00  0.4166667E-01  0.1388889E-01
      1         -4.866059   1.000000
      2         -1.746105   1.000000
      3         -1.746105   1.000000
      4         -1.600962   1.000000
      5         -1.426694   1.000000
      6         -1.426694   1.000000
      7         -1.418895   1.000000
      8         -0.869411   1.000000
      9         -0.640983   1.000000
     10         -0.634261   1.000000
     11         -0.413025   1.000000
     12         -0.413025   1.000000
     13         -0.384272   1.000000
     14         -0.316846   1.000000
     15         -0.176583   1.000000
     16         -0.078605   1.000000
     17         -0.017084   1.000000
     18         -0.017084   1.000000
     19          0.106465   1.000000
     20          0.106465   1.000000
     21          0.131337   1.000000
     22          1.925565   0.000000
     23          1.925565   0.000000
     24          4.551162   0.000000
     25          7.253709   0.000000
     26          7.621121   0.000000
 
  0.2916667E+00  0.2083333E+00  0.4166667E-01  0.2777778E-01
      1         -4.478793   1.000000
      2         -1.873604   1.000000
      3         -1.592782   1.000000
      4         -1.502034   1.000000
      5         -1.358881   1.000000
      6         -1.343259   1.000000
      7         -1.342026   1.000000
      8         -0.923960   1.000000
      9         -0.656332   1.000000
     10         -0.624402   1.000000
     11         -0.579382   1.000000
     12         -0.574395   1.000000
     13         -0.557929   1.000000
     14         -0.346702   1.000000
     15         -0.148506   1.000000
     16         -0.120396   1.000000
     17         -0.089077   1.000000
     18         -0.087409   1.000000
     19          0.037203   1.000000
     20          0.094756   1.000000
     21          0.106315   1.000000
     22          1.069872   1.000000
     23          2.419726   0.000000
     24          5.105075   0.000000
     25          6.275889   0.000000
     26          7.747175   0.000000
 
  0.3750000E+00  0.2083333E+00  0.4166667E-01  0.2777778E-01
      1         -3.979174   1.000000
      2         -2.215093   1.000000
      3         -1.431540   1.000000
      4         -1.387207   1.000000
      5         -1.276006   1.000000
      6         -1.264475   1.000000
      7         -1.234403   1.000000
      8         -1.000363   1.000000
      9         -0.873713   1.000000
     10         -0.745714   1.000000
     11         -0.692483   1.000000
     12         -0.631357   1.000000
     13         -0.501769   1.000000
     14         -0.343531   1.000000
     15         -0.219667   1.000000
     16         -0.193255   1.000000
     17         -0.172705   1.000000
     18         -0.048512   1.000000
     19         -0.041621   1.000000
     20          0.088642   1.000000
     21          0.093061   1.000000
     22          0.512472   1.000000
     23          2.993347   0.000000
     24          5.283372   0.000000
     25          5.782075   0.000000
     26          8.113849   0.000000
 
  0.4583333E+00  0.2083333E+00  0.4166667E-01  0.2777778E-01
      1         -3.391371   1.000000
      2         -2.767386   1.000000
      3         -1.300513   1.000000
      4         -1.267355   1.000000
      5         -1.221991   1.000000
      6         -1.184063   1.000000
      7         -1.137487   1.000000
      8         -1.089717   1.000000
      9         -1.025589   1.000000
     10         -0.920953   1.000000
     11         -0.713228   1.000000
     12         -0.673680   1.000000
     13         -0.409592   1.000000
     14         -0.305061   1.000000
     15         -0.273843   1.000000
     16         -0.261275   1.000000
     17         -0.242745   1.000000
     18         -0.160617   1.000000
     19          0.061349   1.000000
     20          0.086206   1.000000
     21          0.087243   1.000000
     22          0.217268   1.000000
     23          3.653724   0.000000
     24          4.414001   0.000000
     25          6.545205   0.000000
     26          7.394926   0.000000
 
  0.2916667E+00  0.2916667E+00  0.4166667E-01  0.1388889E-01
      1         -4.103468   1.000000
      2         -1.691535   1.000000
      3         -1.691535   1.000000
      4         -1.437630   1.000000
      5         -1.284573   1.000000
      6         -1.284573   1.000000
      7         -1.273231   1.000000
      8         -0.950614   1.000000
      9         -0.781126   1.000000
     10         -0.781126   1.000000
     11         -0.664580   1.000000
     12         -0.637150   1.000000
     13         -0.544834   1.000000
     14         -0.367706   1.000000
     15         -0.208909   1.000000
     16         -0.138480   1.000000
     17         -0.138480   1.000000
     18         -0.040582   1.000000
     19          0.008930   1.000000
     20          0.008930   1.000000
     21          0.055434   1.000000
     22          1.502027   0.939456
     23          1.502027   0.939456
     24          5.151375   0.000000
     25          5.633928   0.000000
     26          8.026671   0.000000
 
  0.3750000E+00  0.2916667E+00  0.4166667E-01  0.2777778E-01
      1         -3.623121   1.000000
      2         -1.989950   1.000000
      3         -1.501654   1.000000
      4         -1.370859   1.000000
      5         -1.214336   1.000000
      6         -1.203188   1.000000
      7         -1.187253   1.000000
      8         -0.999381   1.000000
      9         -0.952021   1.000000
     10         -0.832110   1.000000
     11         -0.793888   1.000000
     12         -0.665816   1.000000
     13         -0.488582   1.000000
     14         -0.365888   1.000000
     15         -0.269574   1.000000
     16         -0.226137   1.000000
     17         -0.211311   1.000000
     18         -0.088548   1.000000
     19         -0.004930   1.000000
     20          0.020130   1.000000
     21          0.071780   1.000000
     22          0.847767   1.000000
     23          2.007158   0.000000
     24          4.170340   0.000000
     25          6.269571   0.000000
     26          8.429848   0.000000
 
  0.4583333E+00  0.2916667E+00  0.4166667E-01  0.2777778E-01
      1         -3.065725   1.000000
      2         -2.487332   1.000000
      3         -1.353967   1.000000
      4         -1.315809   1.000000
      5         -1.162850   1.000000
      6         -1.138866   1.000000
      7         -1.114341   1.000000
      8         -1.064780   1.000000
      9         -1.036412   1.000000
     10         -0.925950   1.000000
     11         -0.797108   1.000000
     12         -0.726575   1.000000
     13         -0.416965   1.000000
     14         -0.326763   1.000000
     15         -0.302852   1.000000
     16         -0.301705   1.000000
     17         -0.278065   1.000000
     18         -0.198493   1.000000
     19         -0.007306   1.000000
     20          0.000317   1.000000
     21          0.222573   1.000000
     22          0.452019   1.000000
     23          2.606768   0.000000
     24          3.322729   0.000000
     25          7.012019   0.000000
     26          7.846927   0.000000
 
  0.3750000E+00  0.3750000E+00  0.4166667E-01  0.1388889E-01
      1         -3.174611   1.000000
      2         -1.750881   1.000000
      3         -1.750881   1.000000
      4         -1.385727   1.000000
      5         -1.133587   1.000000
      6         -1.133587   1.000000
      7         -1.120451   1.000000
      8         -1.012439   1.000000
      9         -0.936313   1.000000
     10         -0.936313   1.000000
     11         -0.861046   1.000000
     12         -0.701562   1.000000
     13         -0.470858   1.000000
     14         -0.368005   1.000000
     15         -0.325613   1.000000
     16         -0.283465   1.000000
     17         -0.283465   1.000000
     18         -0.108777   1.000000
     19         -0.108777   1.000000
     20         -0.041779   1.000000
     21          0.224964   1.000000
     22          1.252738   1.000000
     23          1.252738   1.000000
     24          3.206646   0.000000
     25          6.882523   0.000000
     26          8.868956   0.000000
 
  0.4583333E+00  0.3750000E+00  0.4166667E-01  0.2777778E-01
      1         -2.668582   1.000000
      2         -2.165846   1.000000
      3         -1.553194   1.000000
      4         -1.435783   1.000000
      5         -1.083984   1.000000
      6         -1.055445   1.000000
      7         -1.041810   1.000000
      8         -1.040389   1.000000
      9         -1.003079   1.000000
     10         -0.943161   1.000000
     11         -0.855908   1.000000
     12         -0.765771   1.000000
     13         -0.438632   1.000000
     14         -0.369867   1.000000
     15         -0.359165   1.000000
     16         -0.340989   1.000000
     17         -0.310508   1.000000
     18         -0.215915   1.000000
     19         -0.106568   1.000000
     20         -0.084428   1.000000
     21          0.432426   1.000000
     22          0.746866   1.000000
     23          1.760238   0.000000
     24          2.404416   0.000000
     25          7.604250   0.000000
     26          8.426027   0.000000
 
  0.4583333E+00  0.4583333E+00  0.4166667E-01  0.1388889E-01
      1         -2.244803   1.000000
      2         -1.856044   1.000000
      3         -1.856044   1.000000
      4         -1.608589   1.000000
      5         -1.027575   1.000000
      6         -1.026224   1.000000
      7         -1.026224   1.000000
      8         -0.977849   1.000000
      9         -0.961404   1.000000
     10         -0.901299   1.000000
     11         -0.901299   1.000000
     12         -0.816235   1.000000
     13         -0.450164   1.000000
     14         -0.411433   1.000000
     15         -0.411433   1.000000
     16         -0.408361   1.000000
     17         -0.272260   1.000000
     18         -0.199663   1.000000
     19         -0.199663   1.000000
     20         -0.154274   1.000000
     21          0.717812   1.000000
     22          1.138276   1.000000
     23          1.138276   1.000000
     24          1.678016   0.000305
     25          8.309934   0.000000
     26          9.122703   0.000000
 
  0.1250000E+00  0.1250000E+00  0.1250000E+00  0.4629630E-02
      1         -5.262610   1.000000
      2         -1.772241   1.000000
      3         -1.772241   1.000000
      4         -1.772241   1.000000
      5         -1.505418   1.000000
      6         -1.505418   1.000000
      7         -1.505418   1.000000
      8         -0.807665   1.000000
      9         -0.685992   1.000000
     10         -0.685992   1.000000
     11         -0.245585   1.000000
     12         -0.245585   1.000000
     13         -0.132651   1.000000
     14         -0.132651   1.000000
     15         -0.132651   1.000000
     16         -0.005351   1.000000
     17         -0.005351   1.000000
     18         -0.005351   1.000000
     19          0.175801   1.000000
     20          0.175801   1.000000
     21          0.175801   1.000000
     22          2.772622   0.000000
     23          2.772622   0.000000
     24          2.772622   0.000000
     25          8.340695   0.000000
     26          8.340695   0.000000
 
  0.2083333E+00  0.1250000E+00  0.1250000E+00  0.1388889E-01
      1         -4.997670   1.000000
      2         -1.807608   1.000000
      3         -1.677924   1.000000
      4         -1.677924   1.000000
      5         -1.454336   1.000000
      6         -1.447504   1.000000
      7         -1.447504   1.000000
      8         -0.846464   1.000000
      9         -0.656101   1.000000
     10         -0.653645   1.000000
     11         -0.329024   1.000000
     12         -0.329024   1.000000
     13         -0.283662   1.000000
     14         -0.261228   1.000000
     15         -0.209800   1.000000
     16         -0.077113   1.000000
     17         -0.058124   1.000000
     18         -0.058124   1.000000
     19          0.157563   1.000000
     20          0.164436   1.000000
     21          0.164436   1.000000
     22          1.734219   0.000000
     23          3.166923   0.000000
     24          3.166923   0.000000
     25          8.436909   0.000000
     26          8.436910   0.000000
 
  0.2916667E+00  0.1250000E+00  0.1250000E+00  0.1388889E-01
      1         -4.607179   1.000000
      2         -1.948021   1.000000
      3         -1.555743   1.000000
      4         -1.555743   1.000000
      5         -1.381729   1.000000
      6         -1.362761   1.000000
      7         -1.362761   1.000000
      8         -0.912414   1.000000
      9         -0.615565   1.000000
     10         -0.604504   1.000000
     11         -0.553739   1.000000
     12         -0.553739   1.000000
     13         -0.441021   1.000000
     14         -0.316460   1.000000
     15         -0.167060   1.000000
     16         -0.160532   1.000000
     17         -0.123770   1.000000
     18         -0.123770   1.000000
     19          0.124519   1.000000
     20          0.150165   1.000000
     21          0.150165   1.000000
     22          0.887923   1.000000
     23          3.682913   0.000000
     24          3.682913   0.000000
     25          7.657820   0.000000
     26          7.657820   0.000000
 
  0.3750000E+00  0.1250000E+00  0.1250000E+00  0.1388889E-01
      1         -4.102525   1.000000
      2         -2.304457   1.000000
      3         -1.423570   1.000000
      4         -1.423570   1.000000
      5         -1.293066   1.000000
      6         -1.266064   1.000000
      7         -1.266064   1.000000
      8         -0.997471   1.000000
      9         -0.764985   1.000000
     10         -0.764985   1.000000
     11         -0.604473   1.000000
     12         -0.600171   1.000000
     13         -0.538756   1.000000
     14         -0.294961   1.000000
     15         -0.265975   1.000000
     16         -0.199487   1.000000
     17         -0.199487   1.000000
     18         -0.102256   1.000000
     19          0.078034   1.000000
     20          0.140234   1.000000
     21          0.140234   1.000000
     22          0.335150   1.000000
     23          4.293793   0.000000
     24          4.293793   0.000000
     25          6.682216   0.000000
     26          6.682216   0.000000
 
  0.4583333E+00  0.1250000E+00  0.1250000E+00  0.1388889E-01
      1         -3.507001   1.000000
      2         -2.871516   1.000000
      3         -1.310587   1.000000
      4         -1.310587   1.000000
      5         -1.194892   1.000000
      6         -1.194532   1.000000
      7         -1.194532   1.000000
      8         -1.093951   1.000000
      9         -0.922656   1.000000
     10         -0.922656   1.000000
     11         -0.656396   1.000000
     12         -0.635671   1.000000
     13         -0.457763   1.000000
     14         -0.365322   1.000000
     15         -0.255123   1.000000
     16         -0.255123   1.000000
     17         -0.183641   1.000000
     18         -0.039818   1.000000
     19          0.013277   1.000000
     20          0.022027   1.000000
     21          0.135818   1.000000
     22          0.135818   1.000000
     23          4.986497   0.000000
     24          4.986497   0.000000
     25          5.803282   0.000000
     26          5.803282   0.000000
 
  0.2083333E+00  0.2083333E+00  0.1250000E+00  0.1388889E-01
      1         -4.737573   1.000000
      2         -1.705986   1.000000
      3         -1.705986   1.000000
      4         -1.604456   1.000000
      5         -1.397750   1.000000
      6         -1.397750   1.000000
      7         -1.392138   1.000000
      8         -0.866518   1.000000
      9         -0.642696   1.000000
     10         -0.639431   1.000000
     11         -0.455863   1.000000
     12         -0.455863   1.000000
     13         -0.444370   1.000000
     14         -0.280837   1.000000
     15         -0.194002   1.000000
     16         -0.133923   1.000000
     17         -0.126297   1.000000
     18         -0.126297   1.000000
     19          0.148369   1.000000
     20          0.150697   1.000000
     21          0.150697   1.000000
     22          2.098008   0.000000
     23          2.098008   0.000000
     24          3.521634   0.000000
     25          7.524054   0.000000
     26          8.835433   0.000000
 
  0.2916667E+00  0.2083333E+00  0.1250000E+00  0.2777778E-01
      1         -4.355347   1.000000
      2         -1.831095   1.000000
      3         -1.577521   1.000000
      4         -1.512462   1.000000
      5         -1.326908   1.000000
      6         -1.313924   1.000000
      7         -1.313181   1.000000
      8         -0.912450   1.000000
      9         -0.662724   1.000000
     10         -0.628833   1.000000
     11         -0.607804   1.000000
     12         -0.605174   1.000000
     13         -0.603862   1.000000
     14         -0.294196   1.000000
     15         -0.216432   1.000000
     16         -0.198744   1.000000
     17         -0.175922   1.000000
     18         -0.135149   1.000000
     19          0.120677   1.000000
     20          0.124700   1.000000
     21          0.127284   1.000000
     22          1.205247   1.000000
     23          2.565670   0.000000
     24          4.000610   0.000000
     25          6.428478   0.000000
     26          7.972162   0.000000
 
  0.3750000E+00  0.2083333E+00  0.1250000E+00  0.2777778E-01
      1         -3.863857   1.000000
      2         -2.157009   1.000000
      3         -1.444059   1.000000
      4         -1.410845   1.000000
      5         -1.242163   1.000000
      6         -1.238151   1.000000
      7         -1.222252   1.000000
      8         -0.980327   1.000000
      9         -0.836600   1.000000
     10         -0.761381   1.000000
     11         -0.713293   1.000000
     12         -0.639116   1.000000
     13         -0.555795   1.000000
     14         -0.314172   1.000000
     15         -0.259804   1.000000
     16         -0.259450   1.000000
     17         -0.236994   1.000000
     18         -0.057532   1.000000
     19          0.068507   1.000000
     20          0.103920   1.000000
     21          0.105255   1.000000
     22          0.580009   1.000000
     23          3.122597   0.000000
     24          4.563144   0.000000
     25          5.462622   0.000000
     26          6.980163   0.000000
 
  0.4583333E+00  0.2083333E+00  0.1250000E+00  0.2777778E-01