       N       E                     dE             d eps       ncg     rms          rms(c)
DAV:   1    -0.163097910642E+04   -0.16310E+04   -0.43288E+04  3194   0.390E+03
DAV:   2    -0.192947299975E+04   -0.29849E+03   -0.29455E+03  3716   0.557E+02
DAV:   3    -0.196612531967E+04   -0.36652E+02   -0.36557E+02  4580   0.934E+01
DAV:   4    -0.196674917592E+04   -0.62386E+00   -0.58354E+00  4022   0.141E+01
DAV:   5    -0.196683665489E+04   -0.87479E-01   -0.84364E-01  4178   0.460E+00    0.167E+02
DAV:   6    -0.412922382679E+03    0.15539E+04   -0.11372E+03  3328   0.216E+02    0.794E+01
DAV:   7    -0.169348746381E+03    0.24357E+03   -0.34042E+03  3088   0.366E+02    0.889E+01
DAV:   8    -0.198164474135E+03   -0.28816E+02   -0.51546E+03  3032   0.106E+03    0.628E+01
DAV:   9    -0.384923580725E+02    0.15967E+03   -0.57150E+02  3258   0.211E+02    0.285E+01
DAV:  10    -0.226094879409E+02    0.15883E+02   -0.26895E+01  3382   0.554E+01    0.190E+01
DAV:  11    -0.139810030197E+02    0.86285E+01   -0.37747E+01  3306   0.756E+01    0.256E+00
DAV:  12    -0.181362658861E+02   -0.41553E+01   -0.24514E+01  2998   0.708E+01    0.133E+01
DAV:  13    -0.144896865421E+02    0.36466E+01   -0.61574E+00  3072   0.347E+01    0.632E+00
DAV:  14    -0.138991955584E+02    0.59049E+00   -0.81045E-01  3384   0.110E+01    0.329E+00
DAV:  15    -0.136978117335E+02    0.20138E+00   -0.42816E-01  3260   0.842E+00    0.101E+00
DAV:  16    -0.136840199727E+02    0.13792E-01   -0.29971E-02  3094   0.181E+00    0.539E-01
DAV:  17    -0.136787596202E+02    0.52604E-02   -0.67455E-02  3166   0.346E+00    0.317E-01
DAV:  18    -0.136769815599E+02    0.17781E-02   -0.77505E-03  3044   0.123E+00    0.323E-02
DAV:  19    -0.136770578208E+02   -0.76261E-04   -0.16537E-04  2024   0.182E-01
   1 F= -.13677058E+02 E0= -.13676341E+02  d E =-.143288E-02
