 vasp.6.3.0 20Jan22 (build Sep 29 2023 15:57:01) complex                        
  
 executed on             LinuxIFC date 2023.11.06  15:50:42
 running on    2 total cores
 distrk:  each k-point on    2 cores,    1 groups
 distr:  one band on NCORE=   1 cores,    2 groups


--------------------------------------------------------------------------------------------------------


 INCAR:
   SYSTEM = fcc Cu
   ISTART = 0
   ICHARG = 0
   ENCUT = 292
   ISMEAR = 0
   SIGMA = 0.05

 POTCAR:   PAW_GGA Cu 05Jan2001                   
 POTCAR:   PAW_GGA Cu 05Jan2001                   
   VRHFIN =Cu: d10 p1                                                                               
   LEXCH  = 91                                                                                      
   EATOM  =  1393.0707 eV,  102.3878 Ry                                                             
                                                                                                    
   TITEL  = PAW_GGA Cu 05Jan2001                                                                    
   LULTRA =        F    use ultrasoft PP ?                                                          
   IUNSCR =        1    unscreen: 0-lin 1-nonlin 2-no                                               
   RPACOR =    2.000    partial core radius                                                         
   POMASS =   63.546; ZVAL   =   11.000    mass and valenz                                          
   RCORE  =    2.300    outmost cutoff radius                                                       
   RWIGS  =    2.480; RWIGS  =    1.312    wigner-seitz radius (au A)                               
   ENMAX  =  273.246; ENMIN  =  204.934 eV                                                          
   RCLOC  =    1.712    cutoff for local pot                                                        
   LCOR   =        T    correct aug charges                                                         
   LPAW   =        T    paw PP                                                                      
   EAUG   =  516.456                                                                                
   DEXC   =    -.002                                                                                
   RMAX   =    2.789    core radius for proj-oper                                                   
   RAUG   =    1.300    factor for augmentation sphere                                              
   RDEP   =    2.302    core radius for depl-charge                                                 
   QCUT   =   -4.481; QGAM   =    8.963    optimization parameters                                  
                                                                                                    
   Description                                                                                      
     l     E      TYP  RCUT    TYP  RCUT                                                            
     2   .000     23  2.300                                                                         
     2   .000     23  2.300                                                                         
     0   .000     23  2.300                                                                         
     0   .000     23  2.300                                                                         
     1  -.200     23  2.300                                                                         
     1   .000     23  2.300                                                                         
     3   .000      7   .000                                                                         
  local pseudopotential read in
  partial core-charges read in
  atomic valenz-charges read in
  non local Contribution for L=           2  read in
    real space projection operators read in
  non local Contribution for L=           2  read in
    real space projection operators read in
  non local Contribution for L=           0  read in
    real space projection operators read in
  non local Contribution for L=           0  read in
    real space projection operators read in
  non local Contribution for L=           1  read in
    real space projection operators read in
  non local Contribution for L=           1  read in
    real space projection operators read in
    PAW grid and wavefunctions read in
 
   number of l-projection  operators is LMAX  =           6
   number of lm-projection operators is LMMAX =          18
 
 PAW_GGA Cu 05Jan2001                   :
 energy of atom  1       EATOM=-1393.0707
 kinetic energy error for atom=    0.0324 (will be added to EATOM!!)
 
 
 POSCAR: fcc Cu
  positions in cartesian coordinates
  No initial velocities read in
 exchange correlation table for  LEXCH =        7
   RHO(1)=    0.500       N(1)  =     2000
   RHO(2)=  100.500       N(2)  =     4000
 


--------------------------------------------------------------------------------------------------------


 ion  position               nearest neighbor table
   1  0.000  0.000  0.000-   2 2.83   3 2.83   4 2.83   3 2.83   4 2.83   2 2.83   3 2.83   3 2.83
                             2 2.83   4 2.83   4 2.83   2 2.83
   2  0.500  0.500  0.000-   1 2.83   3 2.83   4 2.83   3 2.83   4 2.83   1 2.83   4 2.83   4 2.83
                             1 2.83   3 2.83   3 2.83   1 2.83
   3  0.000  0.500  0.500-   1 2.83   2 2.83   4 2.83   1 2.83   2 2.83   1 2.83   4 2.83   1 2.83
                             2 2.83   4 2.83   2 2.83   4 2.83
   4  0.500  0.000  0.500-   1 2.83   2 2.83   3 2.83   1 2.83   2 2.83   2 2.83   3 2.83   2 2.83
                             1 2.83   3 2.83   1 2.83   3 2.83
 
  LATTYP: Found a simple cubic cell.
 ALAT       =     4.0000000000
  
  Lattice vectors:
  
 A1 = (   4.0000000000,   0.0000000000,   0.0000000000)
 A2 = (   0.0000000000,   4.0000000000,   0.0000000000)
 A3 = (   0.0000000000,   0.0000000000,   4.0000000000)


Analysis of symmetry for initial positions (statically):
=====================================================================
 Subroutine PRICEL returns following result:
 
  LATTYP: Found a face centered cubic cell.
 ALAT       =     4.0000000000
  
  Lattice vectors:
  
 A1 = (   2.0000000000,  -2.0000000000,   0.0000000000)
 A2 = (   2.0000000000,   0.0000000000,   2.0000000000)
 A3 = (   0.0000000000,  -2.0000000000,   2.0000000000)
 
   4 primitive cells build up your supercell.
 

 Routine SETGRP: Setting up the symmetry group for a 
 simple cubic supercell.


 Subroutine GETGRP returns: Found 48 space group operations
 (whereof 48 operations were pure point group operations)
 out of a pool of 48 trial point group operations.


The static configuration has the point symmetry O_h .


Analysis of symmetry for dynamics (positions and initial velocities):
=====================================================================
 Subroutine PRICEL returns following result:
 
  LATTYP: Found a face centered cubic cell.
 ALAT       =     4.0000000000
  
  Lattice vectors:
  
 A1 = (   2.0000000000,  -2.0000000000,   0.0000000000)
 A2 = (   2.0000000000,   0.0000000000,   2.0000000000)
 A3 = (   0.0000000000,  -2.0000000000,   2.0000000000)
 
   4 primitive cells build up your supercell.
 

 Routine SETGRP: Setting up the symmetry group for a 
 simple cubic supercell.


 Subroutine GETGRP returns: Found 48 space group operations
 (whereof 48 operations were pure point group operations)
 out of a pool of 48 trial point group operations.


The dynamic configuration has the point symmetry O_h .


 Subroutine INISYM returns: Found 48 space group operations
 (whereof 48 operations are pure point group operations),
 and found     4 'primitive' translations


----------------------------------------------------------------------------------------

                                     Primitive cell                                     

  volume of cell :      16.0000

  direct lattice vectors                    reciprocal lattice vectors
     2.000000000 -2.000000000  0.000000000     0.250000000 -0.250000000 -0.250000000
     2.000000000  0.000000000  2.000000000     0.250000000  0.250000000  0.250000000
     0.000000000 -2.000000000  2.000000000    -0.250000000 -0.250000000  0.250000000

  length of vectors
     2.828427125  2.828427125  2.828427125     0.433012702  0.433012702  0.433012702

  position of ions in fractional coordinates (direct lattice)
     0.000000000  0.000000000  0.000000000

  ion indices of the primitive-cell ions
   primitive index   ion index
                 1           1

----------------------------------------------------------------------------------------

 
 
 KPOINTS: K-Points                                

Automatic generation of k-mesh.
 Grid dimensions read from file:
 generate k-points for:   12   12   12

 Generating k-lattice:

  Cartesian coordinates                     Fractional coordinates (reciprocal lattice)
     0.020833333  0.000000000  0.000000000     0.083333333  0.000000000  0.000000000
     0.000000000  0.020833333  0.000000000     0.000000000  0.083333333  0.000000000
     0.000000000  0.000000000  0.020833333     0.000000000  0.000000000  0.083333333

  Length of vectors
     0.020833333  0.020833333  0.020833333

  Shift w.r.t. Gamma in fractional coordinates (k-lattice)
     0.500000000  0.500000000  0.500000000

 
 Subroutine IBZKPT returns following result:
 ===========================================
 
 Found     56 irreducible k-points:
 
 Following reciprocal coordinates:
            Coordinates               Weight
  0.041667  0.041667  0.041667      8.000000
  0.125000  0.041667  0.041667     24.000000
  0.208333  0.041667  0.041667     24.000000
  0.291667  0.041667  0.041667     24.000000
  0.375000  0.041667  0.041667     24.000000
  0.458333  0.041667  0.041667     24.000000
  0.125000  0.125000  0.041667     24.000000
  0.208333  0.125000  0.041667     48.000000
  0.291667  0.125000  0.041667     48.000000
  0.375000  0.125000  0.041667     48.000000
  0.458333  0.125000  0.041667     48.000000
  0.208333  0.208333  0.041667     24.000000
  0.291667  0.208333  0.041667     48.000000
  0.375000  0.208333  0.041667     48.000000
  0.458333  0.208333  0.041667     48.000000
  0.291667  0.291667  0.041667     24.000000
  0.375000  0.291667  0.041667     48.000000
  0.458333  0.291667  0.041667     48.000000
  0.375000  0.375000  0.041667     24.000000
  0.458333  0.375000  0.041667     48.000000
  0.458333  0.458333  0.041667     24.000000
  0.125000  0.125000  0.125000      8.000000
  0.208333  0.125000  0.125000     24.000000
  0.291667  0.125000  0.125000     24.000000
  0.375000  0.125000  0.125000     24.000000
  0.458333  0.125000  0.125000     24.000000
  0.208333  0.208333  0.125000     24.000000
  0.291667  0.208333  0.125000     48.000000
  0.375000  0.208333  0.125000     48.000000
  0.458333  0.208333  0.125000     48.000000
  0.291667  0.291667  0.125000     24.000000
  0.375000  0.291667  0.125000     48.000000
  0.458333  0.291667  0.125000     48.000000
  0.375000  0.375000  0.125000     24.000000
  0.458333  0.375000  0.125000     48.000000
  0.458333  0.458333  0.125000     24.000000
  0.208333  0.208333  0.208333      8.000000
  0.291667  0.208333  0.208333     24.000000
  0.375000  0.208333  0.208333     24.000000
  0.458333  0.208333  0.208333     24.000000
  0.291667  0.291667  0.208333     24.000000
  0.375000  0.291667  0.208333     48.000000
  0.458333  0.291667  0.208333     48.000000
  0.375000  0.375000  0.208333     24.000000
  0.458333  0.375000  0.208333     48.000000
  0.458333  0.458333  0.208333     24.000000
  0.291667  0.291667  0.291667      8.000000
  0.375000  0.291667  0.291667     24.000000
  0.458333  0.291667  0.291667     24.000000
  0.375000  0.375000  0.291667     24.000000
  0.458333  0.375000  0.291667     48.000000
  0.458333  0.458333  0.291667     24.000000
  0.375000  0.375000  0.375000      8.000000
  0.458333  0.375000  0.375000     24.000000
  0.458333  0.458333  0.375000     24.000000
  0.458333  0.458333  0.458333      8.000000
 
 Following cartesian coordinates:
            Coordinates               Weight
  0.041667  0.041667  0.041667      8.000000
  0.125000  0.041667  0.041667     24.000000
  0.208333  0.041667  0.041667     24.000000
  0.291667  0.041667  0.041667     24.000000
  0.375000  0.041667  0.041667     24.000000
  0.458333  0.041667  0.041667     24.000000
  0.125000  0.125000  0.041667     24.000000
  0.208333  0.125000  0.041667     48.000000
  0.291667  0.125000  0.041667     48.000000
  0.375000  0.125000  0.041667     48.000000
  0.458333  0.125000  0.041667     48.000000
  0.208333  0.208333  0.041667     24.000000
  0.291667  0.208333  0.041667     48.000000
  0.375000  0.208333  0.041667     48.000000
  0.458333  0.208333  0.041667     48.000000
  0.291667  0.291667  0.041667     24.000000
  0.375000  0.291667  0.041667     48.000000
  0.458333  0.291667  0.041667     48.000000
  0.375000  0.375000  0.041667     24.000000
  0.458333  0.375000  0.041667     48.000000
  0.458333  0.458333  0.041667     24.000000
  0.125000  0.125000  0.125000      8.000000
  0.208333  0.125000  0.125000     24.000000
  0.291667  0.125000  0.125000     24.000000
  0.375000  0.125000  0.125000     24.000000
  0.458333  0.125000  0.125000     24.000000
  0.208333  0.208333  0.125000     24.000000
  0.291667  0.208333  0.125000     48.000000
  0.375000  0.208333  0.125000     48.000000
  0.458333  0.208333  0.125000     48.000000
  0.291667  0.291667  0.125000     24.000000
  0.375000  0.291667  0.125000     48.000000
  0.458333  0.291667  0.125000     48.000000
  0.375000  0.375000  0.125000     24.000000
  0.458333  0.375000  0.125000     48.000000
  0.458333  0.458333  0.125000     24.000000
  0.208333  0.208333  0.208333      8.000000
  0.291667  0.208333  0.208333     24.000000
  0.375000  0.208333  0.208333     24.000000
  0.458333  0.208333  0.208333     24.000000
  0.291667  0.291667  0.208333     24.000000
  0.375000  0.291667  0.208333     48.000000
  0.458333  0.291667  0.208333     48.000000
  0.375000  0.375000  0.208333     24.000000
  0.458333  0.375000  0.208333     48.000000
  0.458333  0.458333  0.208333     24.000000
  0.291667  0.291667  0.291667      8.000000
  0.375000  0.291667  0.291667     24.000000
  0.458333  0.291667  0.291667     24.000000
  0.375000  0.375000  0.291667     24.000000
  0.458333  0.375000  0.291667     48.000000
  0.458333  0.458333  0.291667     24.000000
  0.375000  0.375000  0.375000      8.000000
  0.458333  0.375000  0.375000     24.000000
  0.458333  0.458333  0.375000     24.000000
  0.458333  0.458333  0.458333      8.000000
 


--------------------------------------------------------------------------------------------------------




 Dimension of arrays:
   k-points           NKPTS =     56   k-points in BZ     NKDIM =     56   number of bands    NBANDS=     26
   number of dos      NEDOS =    301   number of ions     NIONS =      4
   non local maximal  LDIM  =      6   non local SUM 2l+1 LMDIM =     18
   total plane-waves  NPLWV =   5832
   max r-space proj   IRMAX =      1   max aug-charges    IRDMAX=   3397
   dimension x,y,z NGX =    18 NGY =   18 NGZ =   18
   dimension x,y,z NGXF=    36 NGYF=   36 NGZF=   36
   support grid    NGXF=    36 NGYF=   36 NGZF=   36
   ions per type =               4
   NGX,Y,Z   is equivalent  to a cutoff of   7.48,  7.48,  7.48 a.u.
   NGXF,Y,Z  is equivalent  to a cutoff of  14.96, 14.96, 14.96 a.u.

 SYSTEM =  fcc Cu                                  
 POSCAR =  fcc Cu                                  

 Startparameter for this run:
   NWRITE =      2    write-flag & timer
   PREC   = normal    normal or accurate (medium, high low for compatibility)
   ISTART =      0    job   : 0-new  1-cont  2-samecut
   ICHARG =      0    charge: 1-file 2-atom 10-const
   ISPIN  =      1    spin polarized calculation?
   LNONCOLLINEAR =      F non collinear calculations
   LSORBIT =      F    spin-orbit coupling
   INIWAV =      1    electr: 0-lowe 1-rand  2-diag
   LASPH  =      F    aspherical Exc in radial PAW
 Electronic Relaxation 1
   ENCUT  =  292.0 eV  21.46 Ry    4.63 a.u.   5.57  5.57  5.57*2*pi/ulx,y,z
   ENINI  =  292.0     initial cutoff
   ENAUG  =  516.5 eV  augmentation charge cutoff
   NELM   =     60;   NELMIN=  2; NELMDL= -5     # of ELM steps 
   EDIFF  = 0.1E-03   stopping-criterion for ELM
   LREAL  =      F    real-space projection
   NLSPLINE    = F    spline interpolate recip. space projectors
   LCOMPAT=      F    compatible to vasp.4.4
   GGA_COMPAT  = T    GGA compatible to vasp.4.4-vasp.4.6
   LMAXPAW     = -100 max onsite density
   LMAXMIX     =    2 max onsite mixed and CHGCAR
   VOSKOWN=      0    Vosko Wilk Nusair interpolation
   ROPT   =    0.00000
 Ionic relaxation
   EDIFFG = 0.1E-02   stopping-criterion for IOM
   NSW    =      0    number of steps for IOM
   NBLOCK =      1;   KBLOCK =      1    inner block; outer block 
   IBRION =     -1    ionic relax: 0-MD 1-quasi-New 2-CG
   NFREE  =      0    steps in history (QN), initial steepest desc. (CG)
   ISIF   =      2    stress and relaxation
   IWAVPR =     10    prediction:  0-non 1-charg 2-wave 3-comb
   ISYM   =      2    0-nonsym 1-usesym 2-fastsym
   LCORR  =      T    Harris-Foulkes like correction to forces

   POTIM  = 0.5000    time-step for ionic-motion
   TEIN   =    0.0    initial temperature
   TEBEG  =    0.0;   TEEND  =   0.0 temperature during run
   SMASS  =  -3.00    Nose mass-parameter (am)
   estimated Nose-frequenzy (Omega)   =  0.10E-29 period in steps = 0.13E+47 mass=  -0.366E-27a.u.
   SCALEE = 1.0000    scale energy and forces
   NPACO  =    256;   APACO  = 10.0  distance and # of slots for P.C.
   PSTRESS=    0.0 pullay stress

  Mass of Ions in am
   POMASS =  63.55
  Ionic Valenz
   ZVAL   =  11.00
  Atomic Wigner-Seitz radii
   RWIGS  =  -1.00
  virtual crystal weights 
   VCA    =   1.00
   NELECT =      44.0000    total number of electrons
   NUPDOWN=      -1.0000    fix difference up-down

 DOS related values:
   EMIN   =  10.00;   EMAX   =-10.00  energy-range for DOS
   EFERMI =   0.00
   ISMEAR =     0;   SIGMA  =   0.05  broadening in eV -4-tet -1-fermi 0-gaus

 Electronic relaxation 2 (details)
   IALGO  =     38    algorithm
   LDIAG  =      T    sub-space diagonalisation (order eigenvalues)
   LSUBROT=      F    optimize rotation matrix (better conditioning)
   TURBO    =      0    0=normal 1=particle mesh
   IRESTART =      0    0=no restart 2=restart with 2 vectors
   NREBOOT  =      0    no. of reboots
   NMIN     =      0    reboot dimension
   EREF     =   0.00    reference energy to select bands
   IMIX   =      4    mixing-type and parameters
     AMIX     =   0.40;   BMIX     =  1.00
     AMIX_MAG =   1.60;   BMIX_MAG =  1.00
     AMIN     =   0.10
     WC   =   100.;   INIMIX=   1;  MIXPRE=   1;  MAXMIX= -45

 Intra band minimization:
   WEIMIN = 0.0000     energy-eigenvalue tresh-hold
   EBREAK =  0.96E-06  absolut break condition
   DEPER  =   0.30     relativ break condition  

   TIME   =   0.40     timestep for ELM

  volume/ion in A,a.u.               =      16.00       107.97
  Fermi-wavevector in a.u.,A,eV,Ry     =   1.444882  2.730431 28.404667  2.087684
  Thomas-Fermi vector in A             =   2.563127
 
 Write flags
   LWAVE        =      T    write WAVECAR
   LDOWNSAMPLE  =      F    k-point downsampling of WAVECAR
   LCHARG       =      T    write CHGCAR
   LVTOT        =      F    write LOCPOT, total local potential
   LVHAR        =      F    write LOCPOT, Hartree potential only
   LELF         =      F    write electronic localiz. function (ELF)
   LORBIT       =      0    0 simple, 1 ext, 2 COOP (PROOUT), +10 PAW based schemes


 Dipole corrections
   LMONO  =      F    monopole corrections only (constant potential shift)
   LDIPOL =      F    correct potential (dipole corrections)
   IDIPOL =      0    1-x, 2-y, 3-z, 4-all directions 
   EPSILON=  1.0000000 bulk dielectric constant

 Exchange correlation treatment:
   GGA     =    --    GGA type
   LEXCH   =     7    internal setting for exchange type
   LIBXC   =     F    Libxc                    
   VOSKOWN =     0    Vosko Wilk Nusair interpolation
   LHFCALC =     F    Hartree Fock is set to
   LHFONE  =     F    Hartree Fock one center treatment
   AEXX    =    0.0000 exact exchange contribution

 Linear response parameters
   LEPSILON=     F    determine dielectric tensor
   LRPA    =     F    only Hartree local field effects (RPA)
   LNABLA  =     F    use nabla operator in PAW spheres
   LVEL    =     F    velocity operator in full k-point grid
   CSHIFT  =0.1000    complex shift for real part using Kramers Kronig
   OMEGAMAX=  -1.0    maximum frequency
   DEG_THRESHOLD= 0.2000000E-02 threshold for treating states as degnerate
   RTIME   =   -0.100 relaxation time in fs
  (WPLASMAI=    0.000 imaginary part of plasma frequency in eV, 0.658/RTIME)
   DFIELD  = 0.0000000 0.0000000 0.0000000 field for delta impulse in time
 
  Optional k-point grid parameters
   LKPOINTS_OPT  =     F    use optional k-point grid
   KPOINTS_OPT_MODE=     1    mode for optional k-point grid
 
 Orbital magnetization related:
   ORBITALMAG=     F  switch on orbital magnetization
   LCHIMAG   =     F  perturbation theory with respect to B field
   DQ        =  0.001000  dq finite difference perturbation B field
   LLRAUG    =     F  two centre corrections for induced B field



--------------------------------------------------------------------------------------------------------


 Static calculation
 charge density and potential will be updated during run
 non-spin polarized calculation
 Variant of blocked Davidson
 Davidson routine will perform the subspace rotation
 perform sub-space diagonalisation
    after iterative eigenvector-optimisation
 modified Broyden-mixing scheme, WC =      100.0
 initial mixing is a Kerker type mixing with AMIX =  0.4000 and BMIX =      1.0000
 Hartree-type preconditioning will be used
 using additional bands            4
 reciprocal scheme for non local part
 use partial core corrections
 calculate Harris-corrections to forces 
   (improved forces if not selfconsistent)
 use gradient corrections 
 use of overlap-Matrix (Vanderbilt PP)
 Gauss-broadening in eV      SIGMA  =   0.05


--------------------------------------------------------------------------------------------------------


  energy-cutoff  :      292.00
  volume of cell :       64.00
      direct lattice vectors                 reciprocal lattice vectors
     4.000000000  0.000000000  0.000000000     0.250000000  0.000000000  0.000000000
     0.000000000  4.000000000  0.000000000     0.000000000  0.250000000  0.000000000
     0.000000000  0.000000000  4.000000000     0.000000000  0.000000000  0.250000000

  length of vectors
     4.000000000  4.000000000  4.000000000     0.250000000  0.250000000  0.250000000


 
 k-points in units of 2pi/SCALE and weight: K-Points                                
   0.04166667  0.04166667  0.04166667       0.005
   0.12500000  0.04166667  0.04166667       0.014
   0.20833333  0.04166667  0.04166667       0.014
   0.29166667  0.04166667  0.04166667       0.014
   0.37500000  0.04166667  0.04166667       0.014
   0.45833333  0.04166667  0.04166667       0.014
   0.12500000  0.12500000  0.04166667       0.014
   0.20833333  0.12500000  0.04166667       0.028
   0.29166667  0.12500000  0.04166667       0.028
   0.37500000  0.12500000  0.04166667       0.028
   0.45833333  0.12500000  0.04166667       0.028
   0.20833333  0.20833333  0.04166667       0.014
   0.29166667  0.20833333  0.04166667       0.028
   0.37500000  0.20833333  0.04166667       0.028
   0.45833333  0.20833333  0.04166667       0.028
   0.29166667  0.29166667  0.04166667       0.014
   0.37500000  0.29166667  0.04166667       0.028
   0.45833333  0.29166667  0.04166667       0.028
   0.37500000  0.37500000  0.04166667       0.014
   0.45833333  0.37500000  0.04166667       0.028
   0.45833333  0.45833333  0.04166667       0.014
   0.12500000  0.12500000  0.12500000       0.005
   0.20833333  0.12500000  0.12500000       0.014
   0.29166667  0.12500000  0.12500000       0.014
   0.37500000  0.12500000  0.12500000       0.014
   0.45833333  0.12500000  0.12500000       0.014
   0.20833333  0.20833333  0.12500000       0.014
   0.29166667  0.20833333  0.12500000       0.028
   0.37500000  0.20833333  0.12500000       0.028
   0.45833333  0.20833333  0.12500000       0.028
   0.29166667  0.29166667  0.12500000       0.014
   0.37500000  0.29166667  0.12500000       0.028
   0.45833333  0.29166667  0.12500000       0.028
   0.37500000  0.37500000  0.12500000       0.014
   0.45833333  0.37500000  0.12500000       0.028
   0.45833333  0.45833333  0.12500000       0.014
   0.20833333  0.20833333  0.20833333       0.005
   0.29166667  0.20833333  0.20833333       0.014
   0.37500000  0.20833333  0.20833333       0.014
   0.45833333  0.20833333  0.20833333       0.014
   0.29166667  0.29166667  0.20833333       0.014
   0.37500000  0.29166667  0.20833333       0.028
   0.45833333  0.29166667  0.20833333       0.028
   0.37500000  0.37500000  0.20833333       0.014
   0.45833333  0.37500000  0.20833333       0.028
   0.45833333  0.45833333  0.20833333       0.014
   0.29166667  0.29166667  0.29166667       0.005
   0.37500000  0.29166667  0.29166667       0.014
   0.45833333  0.29166667  0.29166667       0.014
   0.37500000  0.37500000  0.29166667       0.014
   0.45833333  0.37500000  0.29166667       0.028
   0.45833333  0.45833333  0.29166667       0.014
   0.37500000  0.37500000  0.37500000       0.005
   0.45833333  0.37500000  0.37500000       0.014
   0.45833333  0.45833333  0.37500000       0.014
   0.45833333  0.45833333  0.45833333       0.005
 
 k-points in reciprocal lattice and weights: K-Points                                
   0.04166667  0.04166667  0.04166667       0.005
   0.12500000  0.04166667  0.04166667       0.014
   0.20833333  0.04166667  0.04166667       0.014
   0.29166667  0.04166667  0.04166667       0.014
   0.37500000  0.04166667  0.04166667       0.014
   0.45833333  0.04166667  0.04166667       0.014
   0.12500000  0.12500000  0.04166667       0.014
   0.20833333  0.12500000  0.04166667       0.028
   0.29166667  0.12500000  0.04166667       0.028
   0.37500000  0.12500000  0.04166667       0.028
   0.45833333  0.12500000  0.04166667       0.028
   0.20833333  0.20833333  0.04166667       0.014
   0.29166667  0.20833333  0.04166667       0.028
   0.37500000  0.20833333  0.04166667       0.028
   0.45833333  0.20833333  0.04166667       0.028
   0.29166667  0.29166667  0.04166667       0.014
   0.37500000  0.29166667  0.04166667       0.028
   0.45833333  0.29166667  0.04166667       0.028
   0.37500000  0.37500000  0.04166667       0.014
   0.45833333  0.37500000  0.04166667       0.028
   0.45833333  0.45833333  0.04166667       0.014
   0.12500000  0.12500000  0.12500000       0.005
   0.20833333  0.12500000  0.12500000       0.014
   0.29166667  0.12500000  0.12500000       0.014
   0.37500000  0.12500000  0.12500000       0.014
   0.45833333  0.12500000  0.12500000       0.014
   0.20833333  0.20833333  0.12500000       0.014
   0.29166667  0.20833333  0.12500000       0.028
   0.37500000  0.20833333  0.12500000       0.028
   0.45833333  0.20833333  0.12500000       0.028
   0.29166667  0.29166667  0.12500000       0.014
   0.37500000  0.29166667  0.12500000       0.028
   0.45833333  0.29166667  0.12500000       0.028
   0.37500000  0.37500000  0.12500000       0.014
   0.45833333  0.37500000  0.12500000       0.028
   0.45833333  0.45833333  0.12500000       0.014
   0.20833333  0.20833333  0.20833333       0.005
   0.29166667  0.20833333  0.20833333       0.014
   0.37500000  0.20833333  0.20833333       0.014
   0.45833333  0.20833333  0.20833333       0.014
   0.29166667  0.29166667  0.20833333       0.014
   0.37500000  0.29166667  0.20833333       0.028
   0.45833333  0.29166667  0.20833333       0.028
   0.37500000  0.37500000  0.20833333       0.014
   0.45833333  0.37500000  0.20833333       0.028
   0.45833333  0.45833333  0.20833333       0.014
   0.29166667  0.29166667  0.29166667       0.005
   0.37500000  0.29166667  0.29166667       0.014
   0.45833333  0.29166667  0.29166667       0.014
   0.37500000  0.37500000  0.29166667       0.014
   0.45833333  0.37500000  0.29166667       0.028
   0.45833333  0.45833333  0.29166667       0.014
   0.37500000  0.37500000  0.37500000       0.005
   0.45833333  0.37500000  0.37500000       0.014
   0.45833333  0.45833333  0.37500000       0.014
   0.45833333  0.45833333  0.45833333       0.005
 
 position of ions in fractional coordinates (direct lattice) 
   0.00000000  0.00000000  0.00000000
   0.50000000  0.50000000  0.00000000
   0.00000000  0.50000000  0.50000000
   0.50000000  0.00000000  0.50000000
 
 position of ions in cartesian coordinates  (Angst):
   0.00000000  0.00000000  0.00000000
   2.00000000  2.00000000  0.00000000
   0.00000000  2.00000000  2.00000000
   2.00000000  0.00000000  2.00000000
 


--------------------------------------------------------------------------------------------------------


 k-point   1 :   0.0417 0.0417 0.0417  plane waves:     739
 k-point   2 :   0.1250 0.0417 0.0417  plane waves:     735
 k-point   3 :   0.2083 0.0417 0.0417  plane waves:     732
 k-point   4 :   0.2917 0.0417 0.0417  plane waves:     729
 k-point   5 :   0.3750 0.0417 0.0417  plane waves:     724
 k-point   6 :   0.4583 0.0417 0.0417  plane waves:     728
 k-point   7 :   0.1250 0.1250 0.0417  plane waves:     731
 k-point   8 :   0.2083 0.1250 0.0417  plane waves:     725
 k-point   9 :   0.2917 0.1250 0.0417  plane waves:     728
 k-point  10 :   0.3750 0.1250 0.0417  plane waves:     727
 k-point  11 :   0.4583 0.1250 0.0417  plane waves:     732
 k-point  12 :   0.2083 0.2083 0.0417  plane waves:     725
 k-point  13 :   0.2917 0.2083 0.0417  plane waves:     728
 k-point  14 :   0.3750 0.2083 0.0417  plane waves:     730
 k-point  15 :   0.4583 0.2083 0.0417  plane waves:     728
 k-point  16 :   0.2917 0.2917 0.0417  plane waves:     729
 k-point  17 :   0.3750 0.2917 0.0417  plane waves:     732
 k-point  18 :   0.4583 0.2917 0.0417  plane waves:     723
 k-point  19 :   0.3750 0.3750 0.0417  plane waves:     728
 k-point  20 :   0.4583 0.3750 0.0417  plane waves:     724
 k-point  21 :   0.4583 0.4583 0.0417  plane waves:     728
 k-point  22 :   0.1250 0.1250 0.1250  plane waves:     730
 k-point  23 :   0.2083 0.1250 0.1250  plane waves:     725
 k-point  24 :   0.2917 0.1250 0.1250  plane waves:     723
 k-point  25 :   0.3750 0.1250 0.1250  plane waves:     733
 k-point  26 :   0.4583 0.1250 0.1250  plane waves:     728
 k-point  27 :   0.2083 0.2083 0.1250  plane waves:     724
 k-point  28 :   0.2917 0.2083 0.1250  plane waves:     725
 k-point  29 :   0.3750 0.2083 0.1250  plane waves:     728
 k-point  30 :   0.4583 0.2083 0.1250  plane waves:     729
 k-point  31 :   0.2917 0.2917 0.1250  plane waves:     730
 k-point  32 :   0.3750 0.2917 0.1250  plane waves:     723
 k-point  33 :   0.4583 0.2917 0.1250  plane waves:     726
 k-point  34 :   0.3750 0.3750 0.1250  plane waves:     728
 k-point  35 :   0.4583 0.3750 0.1250  plane waves:     725
 k-point  36 :   0.4583 0.4583 0.1250  plane waves:     726
 k-point  37 :   0.2083 0.2083 0.2083  plane waves:     730
 k-point  38 :   0.2917 0.2083 0.2083  plane waves:     727
 k-point  39 :   0.3750 0.2083 0.2083  plane waves:     730
 k-point  40 :   0.4583 0.2083 0.2083  plane waves:     734
 k-point  41 :   0.2917 0.2917 0.2083  plane waves:     728
 k-point  42 :   0.3750 0.2917 0.2083  plane waves:     727
 k-point  43 :   0.4583 0.2917 0.2083  plane waves:     725
 k-point  44 :   0.3750 0.3750 0.2083  plane waves:     720
 k-point  45 :   0.4583 0.3750 0.2083  plane waves:     720
 k-point  46 :   0.4583 0.4583 0.2083  plane waves:     718
 k-point  47 :   0.2917 0.2917 0.2917  plane waves:     729
 k-point  48 :   0.3750 0.2917 0.2917  plane waves:     721
 k-point  49 :   0.4583 0.2917 0.2917  plane waves:     722
 k-point  50 :   0.3750 0.3750 0.2917  plane waves:     723
 k-point  51 :   0.4583 0.3750 0.2917  plane waves:     716
 k-point  52 :   0.4583 0.4583 0.2917  plane waves:     717
 k-point  53 :   0.3750 0.3750 0.3750  plane waves:     717
 k-point  54 :   0.4583 0.3750 0.3750  plane waves:     709
 k-point  55 :   0.4583 0.4583 0.3750  plane waves:     699
 k-point  56 :   0.4583 0.4583 0.4583  plane waves:     702

 maximum and minimum number of plane-waves per node :       739      699

 maximum number of plane-waves:       739
 maximum index in each direction: 
   IXMAX=    5   IYMAX=    5   IZMAX=    5
   IXMIN=   -6   IYMIN=   -6   IZMIN=   -5


 serial   3D FFT for wavefunctions
 parallel 3D FFT for charge:
    minimum data exchange during FFTs selected (reduces bandwidth)


 total amount of memory used by VASP MPI-rank0    47781. kBytes
=======================================================================

   base      :      30000. kBytes
   nonl-proj :       6014. kBytes
   fftplans  :        848. kBytes
   grid      :       1399. kBytes
   one-center:         62. kBytes
   wavefun   :       9458. kBytes
 
     INWAV:  cpu time      0.0000: real time      0.0000
 Broyden mixing: mesh for mixing (old mesh)
   NGX = 11   NGY = 11   NGZ = 11
  (NGX  = 36   NGY  = 36   NGZ  = 36)
  gives a total of   1331 points

 charge density for first step will be calculated from the start-wavefunctions


--------------------------------------------------------------------------------------------------------


 Maximum index for augmentation-charges         1565 (set IRDMAX)


--------------------------------------------------------------------------------------------------------


 initial charge from wavefunction
 First call to EWALD:  gamma=   0.443
 Maximum number of real-space cells 3x 3x 3
 Maximum number of reciprocal cells 3x 3x 3

    FEWALD:  cpu time      0.0005: real time      0.0005


--------------------------------------- Iteration      1(   1)  ---------------------------------------


    POTLOK:  cpu time      0.0054: real time      0.0054
    SETDIJ:  cpu time      0.0012: real time      0.0012
     EDDAV:  cpu time      0.3719: real time      0.3753
       DOS:  cpu time      0.0006: real time      0.0006
    --------------------------------------------
      LOOP:  cpu time      0.3790: real time      0.3825

 eigenvalue-minimisations  :  3194
 total energy-change (2. order) :-0.1630979E+04  (-0.4328842E+04)
 number of electron      44.0000003 magnetization 
 augmentation part        2.7655435 magnetization 

 Free energy of the ion-electron system (eV)
  ---------------------------------------------------
  alpha Z        PSCENC =       318.01299750
  Ewald energy   TEWEN  =     -3994.27284481
  -Hartree energ DENC   =       -61.91822291
  -exchange      EXHF   =         0.00000000
  -V(xc)+E(xc)   XCENC  =       101.89476684
  PAW double counting   =       957.14256819     -994.20754659
  entropy T*S    EENTRO =        -0.00157034
  eigenvalues    EBANDS =     -3529.78240797
  atomic energy  EATOM  =      5572.15315367
  Solvation  Ediel_sol  =         0.00000000
  ---------------------------------------------------
  free energy    TOTEN  =     -1630.97910642 eV

  energy without entropy =    -1630.97753607  energy(sigma->0) =    -1630.97832124


--------------------------------------------------------------------------------------------------------




--------------------------------------- Iteration      1(   2)  ---------------------------------------


     EDDAV:  cpu time      0.4071: real time      0.4134
       DOS:  cpu time      0.0005: real time      0.0006
    --------------------------------------------
      LOOP:  cpu time      0.4076: real time      0.4140

 eigenvalue-minimisations  :  3716
 total energy-change (2. order) :-0.2984939E+03  (-0.2945486E+03)
 number of electron      44.0000003 magnetization 
 augmentation part        2.7655435 magnetization 

 Free energy of the ion-electron system (eV)
  ---------------------------------------------------
  alpha Z        PSCENC =       318.01299750
  Ewald energy   TEWEN  =     -3994.27284481
  -Hartree energ DENC   =       -61.91822291
  -exchange      EXHF   =         0.00000000
  -V(xc)+E(xc)   XCENC  =       101.89476684
  PAW double counting   =       957.14256819     -994.20754659
  entropy T*S    EENTRO =        -0.00044426
  eigenvalues    EBANDS =     -3828.27742738
  atomic energy  EATOM  =      5572.15315367
  Solvation  Ediel_sol  =         0.00000000
  ---------------------------------------------------
  free energy    TOTEN  =     -1929.47299975 eV

  energy without entropy =    -1929.47255549  energy(sigma->0) =    -1929.47277762


--------------------------------------------------------------------------------------------------------




--------------------------------------- Iteration      1(   3)  ---------------------------------------


     EDDAV:  cpu time      0.4994: real time      0.5063
       DOS:  cpu time      0.0007: real time      0.0015
    --------------------------------------------
      LOOP:  cpu time      0.5001: real time      0.5078

 eigenvalue-minimisations  :  4580
 total energy-change (2. order) :-0.3665232E+02  (-0.3655709E+02)
 number of electron      44.0000003 magnetization 
 augmentation part        2.7655435 magnetization 

 Free energy of the ion-electron system (eV)
  ---------------------------------------------------
  alpha Z        PSCENC =       318.01299750
  Ewald energy   TEWEN  =     -3994.27284481
  -Hartree energ DENC   =       -61.91822291
  -exchange      EXHF   =         0.00000000
  -V(xc)+E(xc)   XCENC  =       101.89476684
  PAW double counting   =       957.14256819     -994.20754659
  entropy T*S    EENTRO =        -0.00905352
  eigenvalues    EBANDS =     -3864.92113805
  atomic energy  EATOM  =      5572.15315367
  Solvation  Ediel_sol  =         0.00000000
  ---------------------------------------------------
  free energy    TOTEN  =     -1966.12531967 eV

  energy without entropy =    -1966.11626615  energy(sigma->0) =    -1966.12079291


--------------------------------------------------------------------------------------------------------




--------------------------------------- Iteration      1(   4)  ---------------------------------------


     EDDAV:  cpu time      0.4705: real time      0.4764
       DOS:  cpu time      0.0010: real time      0.0011
    --------------------------------------------
      LOOP:  cpu time      0.4715: real time      0.4776

 eigenvalue-minimisations  :  4022
 total energy-change (2. order) :-0.6238563E+00  (-0.5835369E+00)
 number of electron      44.0000003 magnetization 
 augmentation part        2.7655435 magnetization 

 Free energy of the ion-electron system (eV)
  ---------------------------------------------------
  alpha Z        PSCENC =       318.01299750
  Ewald energy   TEWEN  =     -3994.27284481
  -Hartree energ DENC   =       -61.91822291
  -exchange      EXHF   =         0.00000000
  -V(xc)+E(xc)   XCENC  =       101.89476684
  PAW double counting   =       957.14256819     -994.20754659
  entropy T*S    EENTRO =        -0.03738186
  eigenvalues    EBANDS =     -3865.51666596
  atomic energy  EATOM  =      5572.15315367
  Solvation  Ediel_sol  =         0.00000000
  ---------------------------------------------------
  free energy    TOTEN  =     -1966.74917592 eV

  energy without entropy =    -1966.71179406  energy(sigma->0) =    -1966.73048499


--------------------------------------------------------------------------------------------------------




--------------------------------------- Iteration      1(   5)  ---------------------------------------


     EDDAV:  cpu time      0.4353: real time      0.4431
       DOS:  cpu time      0.0007: real time      0.0007
    CHARGE:  cpu time      0.0240: real time      0.0241
    MIXING:  cpu time      0.0002: real time      0.0002
    --------------------------------------------
      LOOP:  cpu time      0.4602: real time      0.4681

 eigenvalue-minimisations  :  4178
 total energy-change (2. order) :-0.8747896E-01  (-0.8436447E-01)
 number of electron      44.0000023 magnetization 
 augmentation part       33.1235111 magnetization 

 Broyden mixing:
  rms(total) = 0.16660E+02    rms(broyden)= 0.16659E+02
  rms(prec ) = 0.37259E+02
  weight for this iteration     100.00

 Free energy of the ion-electron system (eV)
  ---------------------------------------------------
  alpha Z        PSCENC =       318.01299750
  Ewald energy   TEWEN  =     -3994.27284481
  -Hartree energ DENC   =       -61.91822291
  -exchange      EXHF   =         0.00000000
  -V(xc)+E(xc)   XCENC  =       101.89476684
  PAW double counting   =       957.14256819     -994.20754659
  entropy T*S    EENTRO =        -0.03821614
  eigenvalues    EBANDS =     -3865.60331065
  atomic energy  EATOM  =      5572.15315367
  Solvation  Ediel_sol  =         0.00000000
  ---------------------------------------------------
  free energy    TOTEN  =     -1966.83665489 eV

  energy without entropy =    -1966.79843875  energy(sigma->0) =    -1966.81754682


--------------------------------------------------------------------------------------------------------




--------------------------------------- Iteration      1(   6)  ---------------------------------------


    POTLOK:  cpu time      0.0053: real time      0.0054
    SETDIJ:  cpu time      0.0011: real time      0.0011
     EDDAV:  cpu time      0.3800: real time      0.3866
       DOS:  cpu time      0.0006: real time      0.0006
    CHARGE:  cpu time      0.0217: real time      0.0217
    MIXING:  cpu time      0.0002: real time      0.0002
    --------------------------------------------
      LOOP:  cpu time      0.4089: real time      0.4157

 eigenvalue-minimisations  :  3328
 total energy-change (2. order) : 0.1553914E+04  (-0.1137222E+03)
 number of electron      44.0000025 magnetization 
 augmentation part       35.0833238 magnetization 

 Broyden mixing:
  rms(total) = 0.79411E+01    rms(broyden)= 0.79353E+01
  rms(prec ) = 0.18722E+02
  weight for this iteration     100.00

 eigenvalues of (default mixing * dielectric matrix)
  average eigenvalue GAMMA=   1.7414
  1.7414

 Free energy of the ion-electron system (eV)
  ---------------------------------------------------
  alpha Z        PSCENC =       318.01299750
  Ewald energy   TEWEN  =     -3994.27284481
  -Hartree energ DENC   =      -603.61792284
  -exchange      EXHF   =         0.00000000
  -V(xc)+E(xc)   XCENC  =       129.02701389
  PAW double counting   =      2610.53795580    -2985.85523946
  entropy T*S    EENTRO =        -0.00145867
  eigenvalues    EBANDS =     -1458.90603776
  atomic energy  EATOM  =      5572.15315367
  Solvation  Ediel_sol  =         0.00000000
  ---------------------------------------------------
  free energy    TOTEN  =      -412.92238268 eV

  energy without entropy =     -412.92092401  energy(sigma->0) =     -412.92165335


--------------------------------------------------------------------------------------------------------




--------------------------------------- Iteration      1(   7)  ---------------------------------------


    POTLOK:  cpu time      0.0053: real time      0.0055
    SETDIJ:  cpu time      0.0011: real time      0.0011
     EDDAV:  cpu time      0.3443: real time      0.3502
       DOS:  cpu time      0.0007: real time      0.0007
    CHARGE:  cpu time      0.0222: real time      0.0223
    MIXING:  cpu time      0.0002: real time      0.0002
    --------------------------------------------
      LOOP:  cpu time      0.3738: real time      0.3800

 eigenvalue-minimisations  :  3088
 total energy-change (2. order) : 0.2435736E+03  (-0.3404192E+03)
 number of electron      44.0000051 magnetization 
 augmentation part       13.5687211 magnetization 

 Broyden mixing:
  rms(total) = 0.88916E+01    rms(broyden)= 0.88907E+01
  rms(prec ) = 0.19360E+02
  weight for this iteration     100.00

 eigenvalues of (default mixing * dielectric matrix)
  average eigenvalue GAMMA=   1.1207
  1.1207  1.1207

 Free energy of the ion-electron system (eV)
  ---------------------------------------------------
  alpha Z        PSCENC =       318.01299750
  Ewald energy   TEWEN  =     -3994.27284481
  -Hartree energ DENC   =     -1663.19282586
  -exchange      EXHF   =         0.00000000
  -V(xc)+E(xc)   XCENC  =       180.39796839
  PAW double counting   =      4789.91248230    -5708.50405237
  entropy T*S    EENTRO =        -0.00965197
  eigenvalues    EBANDS =       336.15402677
  atomic energy  EATOM  =      5572.15315367
  Solvation  Ediel_sol  =         0.00000000
  ---------------------------------------------------
  free energy    TOTEN  =      -169.34874638 eV

  energy without entropy =     -169.33909441  energy(sigma->0) =     -169.34392040


--------------------------------------------------------------------------------------------------------




--------------------------------------- Iteration      1(   8)  ---------------------------------------


    POTLOK:  cpu time      0.0053: real time      0.0054
    SETDIJ:  cpu time      0.0012: real time      0.0012
     EDDAV:  cpu time      0.3414: real time      0.3457
       DOS:  cpu time      0.0007: real time      0.0008
    CHARGE:  cpu time      0.0223: real time      0.0224
    MIXING:  cpu time      0.0002: real time      0.0002
    --------------------------------------------
      LOOP:  cpu time      0.3712: real time      0.3757

 eigenvalue-minimisations  :  3032
 total energy-change (2. order) :-0.2881573E+02  (-0.5154554E+03)
 number of electron      44.0000024 magnetization 
 augmentation part       35.5361470 magnetization 

 Broyden mixing:
  rms(total) = 0.62754E+01    rms(broyden)= 0.62734E+01
  rms(prec ) = 0.14451E+02
  weight for this iteration     100.00

 eigenvalues of (default mixing * dielectric matrix)
  average eigenvalue GAMMA=   1.3335
  2.2040  1.1763  0.6203

 Free energy of the ion-electron system (eV)
  ---------------------------------------------------
  alpha Z        PSCENC =       318.01299750
  Ewald energy   TEWEN  =     -3994.27284481
  -Hartree energ DENC   =      -835.16661949
  -exchange      EXHF   =         0.00000000
  -V(xc)+E(xc)   XCENC  =       138.92203983
  PAW double counting   =      3099.26232426    -3543.03572919
  entropy T*S    EENTRO =        -0.00101434
  eigenvalues    EBANDS =      -954.03878157
  atomic energy  EATOM  =      5572.15315367
  Solvation  Ediel_sol  =         0.00000000
  ---------------------------------------------------
  free energy    TOTEN  =      -198.16447413 eV

  energy without entropy =     -198.16345979  energy(sigma->0) =     -198.16396696


--------------------------------------------------------------------------------------------------------




--------------------------------------- Iteration      1(   9)  ---------------------------------------


    POTLOK:  cpu time      0.0052: real time      0.0054
    SETDIJ:  cpu time      0.0011: real time      0.0011
     EDDAV:  cpu time      0.4069: real time      0.4134
       DOS:  cpu time      0.0007: real time      0.0007
    CHARGE:  cpu time      0.0214: real time      0.0214
    MIXING:  cpu time      0.0002: real time      0.0002
    --------------------------------------------
      LOOP:  cpu time      0.4355: real time      0.4423

 eigenvalue-minimisations  :  3258
 total energy-change (2. order) : 0.1596721E+03  (-0.5715034E+02)
 number of electron      44.0000024 magnetization 
 augmentation part       32.5054056 magnetization 

 Broyden mixing:
  rms(total) = 0.28525E+01    rms(broyden)= 0.28523E+01
  rms(prec ) = 0.67050E+01
  weight for this iteration     100.00

 eigenvalues of (default mixing * dielectric matrix)
  average eigenvalue GAMMA=   1.1522
  2.6676  1.0839  0.6369  0.2206

 Free energy of the ion-electron system (eV)
  ---------------------------------------------------
  alpha Z        PSCENC =       318.01299750
  Ewald energy   TEWEN  =     -3994.27284481
  -Hartree energ DENC   =     -1194.58072001
  -exchange      EXHF   =         0.00000000
  -V(xc)+E(xc)   XCENC  =       156.19452004
  PAW double counting   =      3812.55201982    -4408.35164562
  entropy T*S    EENTRO =        -0.00132972
  eigenvalues    EBANDS =      -300.19850895
  atomic energy  EATOM  =      5572.15315367
  Solvation  Ediel_sol  =         0.00000000
  ---------------------------------------------------
  free energy    TOTEN  =       -38.49235807 eV

  energy without entropy =      -38.49102835  energy(sigma->0) =      -38.49169321


--------------------------------------------------------------------------------------------------------




--------------------------------------- Iteration      1(  10)  ---------------------------------------


    POTLOK:  cpu time      0.0058: real time      0.0059
    SETDIJ:  cpu time      0.0011: real time      0.0011
     EDDAV:  cpu time      0.3944: real time      0.4005
       DOS:  cpu time      0.0006: real time      0.0007
    CHARGE:  cpu time      0.0247: real time      0.0249
    MIXING:  cpu time      0.0004: real time      0.0004
    --------------------------------------------
      LOOP:  cpu time      0.4271: real time      0.4336

 eigenvalue-minimisations  :  3382
 total energy-change (2. order) : 0.1588287E+02  (-0.2689501E+01)
 number of electron      44.0000025 magnetization 
 augmentation part       31.3931835 magnetization 

 Broyden mixing:
  rms(total) = 0.19026E+01    rms(broyden)= 0.19025E+01
  rms(prec ) = 0.45098E+01
  weight for this iteration     100.00

 eigenvalues of (default mixing * dielectric matrix)
  average eigenvalue GAMMA=   1.4102
  3.7155  0.9084  0.9084  0.7594  0.7594

 Free energy of the ion-electron system (eV)
  ---------------------------------------------------
  alpha Z        PSCENC =       318.01299750
  Ewald energy   TEWEN  =     -3994.27284481
  -Hartree energ DENC   =     -1283.37222172
  -exchange      EXHF   =         0.00000000
  -V(xc)+E(xc)   XCENC  =       160.36466185
  PAW double counting   =      3975.95087391    -4593.51772973
  entropy T*S    EENTRO =        -0.00130379
  eigenvalues    EBANDS =      -177.92707482
  atomic energy  EATOM  =      5572.15315367
  Solvation  Ediel_sol  =         0.00000000
  ---------------------------------------------------
  free energy    TOTEN  =       -22.60948794 eV

  energy without entropy =      -22.60818415  energy(sigma->0) =      -22.60883605


--------------------------------------------------------------------------------------------------------




--------------------------------------- Iteration      1(  11)  ---------------------------------------


    POTLOK:  cpu time      0.0080: real time      0.0082
    SETDIJ:  cpu time      0.0019: real time      0.0019
     EDDAV:  cpu time      0.3675: real time      0.3722
       DOS:  cpu time      0.0009: real time      0.0009
    CHARGE:  cpu time      0.0253: real time      0.0254
    MIXING:  cpu time      0.0005: real time      0.0005
    --------------------------------------------
      LOOP:  cpu time      0.4039: real time      0.4090

 eigenvalue-minimisations  :  3306
 total energy-change (2. order) : 0.8628485E+01  (-0.3774670E+01)
 number of electron      44.0000031 magnetization 
 augmentation part       28.8366824 magnetization 

 Broyden mixing:
  rms(total) = 0.25638E+00    rms(broyden)= 0.25503E+00
  rms(prec ) = 0.36714E+00
  weight for this iteration     100.00

 eigenvalues of (default mixing * dielectric matrix)
  average eigenvalue GAMMA=   1.2889
  2.1471  1.9592  1.0674  1.0674  0.7460  0.7460

 Free energy of the ion-electron system (eV)
  ---------------------------------------------------
  alpha Z        PSCENC =       318.01299750
  Ewald energy   TEWEN  =     -3994.27284481
  -Hartree energ DENC   =     -1427.78124432
  -exchange      EXHF   =         0.00000000
  -V(xc)+E(xc)   XCENC  =       167.00263034
  PAW double counting   =      4249.82852979    -4870.76016633
  entropy T*S    EENTRO =        -0.00115573
  eigenvalues    EBANDS =       -28.16290313
  atomic energy  EATOM  =      5572.15315367
  Solvation  Ediel_sol  =         0.00000000
  ---------------------------------------------------
  free energy    TOTEN  =       -13.98100302 eV

  energy without entropy =      -13.97984729  energy(sigma->0) =      -13.98042516


--------------------------------------------------------------------------------------------------------




--------------------------------------- Iteration      1(  12)  ---------------------------------------


    POTLOK:  cpu time      0.0064: real time      0.0065
    SETDIJ:  cpu time      0.0015: real time      0.0015
     EDDAV:  cpu time      0.3693: real time      0.3732
       DOS:  cpu time      0.0007: real time      0.0007
    CHARGE:  cpu time      0.0224: real time      0.0225
    MIXING:  cpu time      0.0003: real time      0.0003
    --------------------------------------------
      LOOP:  cpu time      0.4005: real time      0.4047

 eigenvalue-minimisations  :  2998
 total energy-change (2. order) :-0.4155263E+01  (-0.2451358E+01)
 number of electron      44.0000026 magnetization 
 augmentation part       30.9206097 magnetization 

 Broyden mixing:
  rms(total) = 0.13340E+01    rms(broyden)= 0.13339E+01
  rms(prec ) = 0.30431E+01
  weight for this iteration     100.00

 eigenvalues of (default mixing * dielectric matrix)
  average eigenvalue GAMMA=   1.3613
  2.6086  2.6086  1.1003  1.1003  0.7050  0.7031  0.7031

 Free energy of the ion-electron system (eV)
  ---------------------------------------------------
  alpha Z        PSCENC =       318.01299750
  Ewald energy   TEWEN  =     -3994.27284481
  -Hartree energ DENC   =     -1370.32971443
  -exchange      EXHF   =         0.00000000
  -V(xc)+E(xc)   XCENC  =       164.02609064
  PAW double counting   =      4135.97942759    -4708.59150919
  entropy T*S    EENTRO =        -0.00190948
  eigenvalues    EBANDS =      -135.11195737
  atomic energy  EATOM  =      5572.15315367
  Solvation  Ediel_sol  =         0.00000000
  ---------------------------------------------------
  free energy    TOTEN  =       -18.13626589 eV

  energy without entropy =      -18.13435641  energy(sigma->0) =      -18.13531115


--------------------------------------------------------------------------------------------------------




--------------------------------------- Iteration      1(  13)  ---------------------------------------


    POTLOK:  cpu time      0.0055: real time      0.0056
    SETDIJ:  cpu time      0.0013: real time      0.0013
     EDDAV:  cpu time      0.3667: real time      0.3729
       DOS:  cpu time      0.0011: real time      0.0012
    CHARGE:  cpu time      0.0226: real time      0.0226
    MIXING:  cpu time      0.0004: real time      0.0004
    --------------------------------------------
      LOOP:  cpu time      0.3975: real time      0.4040

 eigenvalue-minimisations  :  3072
 total energy-change (2. order) : 0.3646579E+01  (-0.6157447E+00)
 number of electron      44.0000028 magnetization 
 augmentation part       29.9468865 magnetization 

 Broyden mixing:
  rms(total) = 0.63220E+00    rms(broyden)= 0.63216E+00
  rms(prec ) = 0.14515E+01
  weight for this iteration     100.00

 eigenvalues of (default mixing * dielectric matrix)
  average eigenvalue GAMMA=   1.4155
  3.0256  3.0256  1.1609  1.1609  0.7512  0.7512  0.6697  0.7784

 Free energy of the ion-electron system (eV)
  ---------------------------------------------------
  alpha Z        PSCENC =       318.01299750
  Ewald energy   TEWEN  =     -3994.27284481
  -Hartree energ DENC   =     -1421.65003798
  -exchange      EXHF   =         0.00000000
  -V(xc)+E(xc)   XCENC  =       166.48418568
  PAW double counting   =      4224.08612363    -4804.38127381
  entropy T*S    EENTRO =        -0.00265189
  eigenvalues    EBANDS =       -74.91933852
  atomic energy  EATOM  =      5572.15315367
  Solvation  Ediel_sol  =         0.00000000
  ---------------------------------------------------
  free energy    TOTEN  =       -14.48968654 eV

  energy without entropy =      -14.48703465  energy(sigma->0) =      -14.48836060


--------------------------------------------------------------------------------------------------------




--------------------------------------- Iteration      1(  14)  ---------------------------------------


    POTLOK:  cpu time      0.0055: real time      0.0057
    SETDIJ:  cpu time      0.0011: real time      0.0011
     EDDAV:  cpu time      0.3867: real time      0.3911
       DOS:  cpu time      0.0008: real time      0.0008
    CHARGE:  cpu time      0.0218: real time      0.0218
    MIXING:  cpu time      0.0003: real time      0.0003
    --------------------------------------------
      LOOP:  cpu time      0.4162: real time      0.4208

 eigenvalue-minimisations  :  3384
 total energy-change (2. order) : 0.5904910E+00  (-0.8104507E-01)
 number of electron      44.0000029 magnetization 
 augmentation part       29.5366108 magnetization 

 Broyden mixing:
  rms(total) = 0.32855E+00    rms(broyden)= 0.32852E+00
  rms(prec ) = 0.74771E+00
  weight for this iteration     100.00

 eigenvalues of (default mixing * dielectric matrix)
  average eigenvalue GAMMA=   1.5334
  4.4622  2.6343  1.4113  1.4113  0.7199  0.7199  0.9400  0.7507  0.7507

 Free energy of the ion-electron system (eV)
  ---------------------------------------------------
  alpha Z        PSCENC =       318.01299750
  Ewald energy   TEWEN  =     -3994.27284481
  -Hartree energ DENC   =     -1446.61486475
  -exchange      EXHF   =         0.00000000
  -V(xc)+E(xc)   XCENC  =       167.63818397
  PAW double counting   =      4259.80745781    -4835.88645285
  entropy T*S    EENTRO =        -0.00256376
  eigenvalues    EBANDS =       -54.73426233
  atomic energy  EATOM  =      5572.15315367
  Solvation  Ediel_sol  =         0.00000000
  ---------------------------------------------------
  free energy    TOTEN  =       -13.89919556 eV

  energy without entropy =      -13.89663180  energy(sigma->0) =      -13.89791368


--------------------------------------------------------------------------------------------------------




--------------------------------------- Iteration      1(  15)  ---------------------------------------


    POTLOK:  cpu time      0.0052: real time      0.0054
    SETDIJ:  cpu time      0.0012: real time      0.0012
     EDDAV:  cpu time      0.3962: real time      0.4009
       DOS:  cpu time      0.0008: real time      0.0011
    CHARGE:  cpu time      0.0217: real time      0.0219
    MIXING:  cpu time      0.0003: real time      0.0003
    --------------------------------------------
      LOOP:  cpu time      0.4255: real time      0.4308

 eigenvalue-minimisations  :  3260
 total energy-change (2. order) : 0.2013838E+00  (-0.4281596E-01)
 number of electron      44.0000030 magnetization 
 augmentation part       29.2016038 magnetization 

 Broyden mixing:
  rms(total) = 0.10069E+00    rms(broyden)= 0.10062E+00
  rms(prec ) = 0.22331E+00
  weight for this iteration     100.00

 eigenvalues of (default mixing * dielectric matrix)
  average eigenvalue GAMMA=   1.4420
  4.1069  2.7315  1.4633  1.4633  0.7381  0.7381  0.8277  0.8277  0.9027  0.6211

 Free energy of the ion-electron system (eV)
  ---------------------------------------------------
  alpha Z        PSCENC =       318.01299750
  Ewald energy   TEWEN  =     -3994.27284481
  -Hartree energ DENC   =     -1462.17323152
  -exchange      EXHF   =         0.00000000
  -V(xc)+E(xc)   XCENC  =       168.37374295
  PAW double counting   =      4278.19490519    -4853.99222734
  entropy T*S    EENTRO =        -0.00194118
  eigenvalues    EBANDS =       -39.99236618
  atomic energy  EATOM  =      5572.15315367
  Solvation  Ediel_sol  =         0.00000000
  ---------------------------------------------------
  free energy    TOTEN  =       -13.69781173 eV

  energy without entropy =      -13.69587055  energy(sigma->0) =      -13.69684114


--------------------------------------------------------------------------------------------------------




--------------------------------------- Iteration      1(  16)  ---------------------------------------


    POTLOK:  cpu time      0.0060: real time      0.0061
    SETDIJ:  cpu time      0.0012: real time      0.0012
     EDDAV:  cpu time      0.3532: real time      0.3591
       DOS:  cpu time      0.0007: real time      0.0008
    CHARGE:  cpu time      0.0217: real time      0.0218
    MIXING:  cpu time      0.0003: real time      0.0003
    --------------------------------------------
      LOOP:  cpu time      0.3831: real time      0.3893

 eigenvalue-minimisations  :  3094
 total energy-change (2. order) : 0.1379176E-01  (-0.2997122E-02)
 number of electron      44.0000030 magnetization 
 augmentation part       29.1257745 magnetization 

 Broyden mixing:
  rms(total) = 0.53887E-01    rms(broyden)= 0.53871E-01
  rms(prec ) = 0.12027E+00
  weight for this iteration     100.00

 eigenvalues of (default mixing * dielectric matrix)
  average eigenvalue GAMMA=   1.5153
  4.1288  2.7938  2.1710  1.2778  1.2778  1.1626  0.7450  0.7450  0.8846  0.7410
  0.7410

 Free energy of the ion-electron system (eV)
  ---------------------------------------------------
  alpha Z        PSCENC =       318.01299750
  Ewald energy   TEWEN  =     -3994.27284481
  -Hartree energ DENC   =     -1464.36093998
  -exchange      EXHF   =         0.00000000
  -V(xc)+E(xc)   XCENC  =       168.48363663
  PAW double counting   =      4276.15315647    -4852.74284219
  entropy T*S    EENTRO =        -0.00165586
  eigenvalues    EBANDS =       -37.10868140
  atomic energy  EATOM  =      5572.15315367
  Solvation  Ediel_sol  =         0.00000000
  ---------------------------------------------------
  free energy    TOTEN  =       -13.68401997 eV

  energy without entropy =      -13.68236411  energy(sigma->0) =      -13.68319204


--------------------------------------------------------------------------------------------------------




--------------------------------------- Iteration      1(  17)  ---------------------------------------


    POTLOK:  cpu time      0.0052: real time      0.0053
    SETDIJ:  cpu time      0.0011: real time      0.0011
     EDDAV:  cpu time      0.3588: real time      0.3629
       DOS:  cpu time      0.0007: real time      0.0008
    CHARGE:  cpu time      0.0216: real time      0.0216
    MIXING:  cpu time      0.0004: real time      0.0004
    --------------------------------------------
      LOOP:  cpu time      0.3879: real time      0.3922

 eigenvalue-minimisations  :  3166
 total energy-change (2. order) : 0.5260352E-02  (-0.6745541E-02)
 number of electron      44.0000031 magnetization 
 augmentation part       28.9894296 magnetization 

 Broyden mixing:
  rms(total) = 0.31669E-01    rms(broyden)= 0.31636E-01
  rms(prec ) = 0.71564E-01
  weight for this iteration     100.00

 eigenvalues of (default mixing * dielectric matrix)
  average eigenvalue GAMMA=   1.5299
  3.5964  3.5964  2.5043  1.5431  1.5431  0.7414  0.7414  1.0217  0.8312  0.7017
  0.7689  0.7689

 Free energy of the ion-electron system (eV)
  ---------------------------------------------------
  alpha Z        PSCENC =       318.01299750
  Ewald energy   TEWEN  =     -3994.27284481
  -Hartree energ DENC   =     -1468.56553454
  -exchange      EXHF   =         0.00000000
  -V(xc)+E(xc)   XCENC  =       168.69120255
  PAW double counting   =      4278.89933989    -4857.08656804
  entropy T*S    EENTRO =        -0.00138711
  eigenvalues    EBANDS =       -31.50911873
  atomic energy  EATOM  =      5572.15315367
  Solvation  Ediel_sol  =         0.00000000
  ---------------------------------------------------
  free energy    TOTEN  =       -13.67875962 eV

  energy without entropy =      -13.67737251  energy(sigma->0) =      -13.67806606


--------------------------------------------------------------------------------------------------------




--------------------------------------- Iteration      1(  18)  ---------------------------------------


    POTLOK:  cpu time      0.0056: real time      0.0058
    SETDIJ:  cpu time      0.0012: real time      0.0012
     EDDAV:  cpu time      0.3471: real time      0.3502
       DOS:  cpu time      0.0011: real time      0.0012
    CHARGE:  cpu time      0.0235: real time      0.0236
    MIXING:  cpu time      0.0003: real time      0.0003
    --------------------------------------------
      LOOP:  cpu time      0.3788: real time      0.3822

 eigenvalue-minimisations  :  3044
 total energy-change (2. order) : 0.1778060E-02  (-0.7750462E-03)
 number of electron      44.0000031 magnetization 
 augmentation part       29.0317268 magnetization 

 Broyden mixing:
  rms(total) = 0.32264E-02    rms(broyden)= 0.32241E-02
  rms(prec ) = 0.69599E-02
  weight for this iteration     100.00

 eigenvalues of (default mixing * dielectric matrix)
  average eigenvalue GAMMA=   1.4642
  2.7361  2.7361  2.8080  2.8080  1.2992  0.7429  0.7429  1.0818  0.8939  0.8939
  0.9181  0.6871  0.6871

 Free energy of the ion-electron system (eV)
  ---------------------------------------------------
  alpha Z        PSCENC =       318.01299750
  Ewald energy   TEWEN  =     -3994.27284481
  -Hartree energ DENC   =     -1466.76182063
  -exchange      EXHF   =         0.00000000
  -V(xc)+E(xc)   XCENC  =       168.60468966
  PAW double counting   =      4275.37580076    -4853.48742659
  entropy T*S    EENTRO =        -0.00144243
  eigenvalues    EBANDS =       -33.30008869
  atomic energy  EATOM  =      5572.15315367
  Solvation  Ediel_sol  =         0.00000000
  ---------------------------------------------------
  free energy    TOTEN  =       -13.67698156 eV

  energy without entropy =      -13.67553913  energy(sigma->0) =      -13.67626035


--------------------------------------------------------------------------------------------------------




--------------------------------------- Iteration      1(  19)  ---------------------------------------


    POTLOK:  cpu time      0.0055: real time      0.0057
    SETDIJ:  cpu time      0.0011: real time      0.0011
     EDDAV:  cpu time      0.2604: real time      0.2658
       DOS:  cpu time      0.0008: real time      0.0008
    --------------------------------------------
      LOOP:  cpu time      0.2678: real time      0.2734

 eigenvalue-minimisations  :  2024
 total energy-change (2. order) :-0.7626083E-04  (-0.1653694E-04)
 number of electron      44.0000031 magnetization 
 augmentation part       29.0317268 magnetization 

 Free energy of the ion-electron system (eV)
  ---------------------------------------------------
  alpha Z        PSCENC =       318.01299750
  Ewald energy   TEWEN  =     -3994.27284481
  -Hartree energ DENC   =     -1466.90812652
  -exchange      EXHF   =         0.00000000
  -V(xc)+E(xc)   XCENC  =       168.61161775
  PAW double counting   =      4275.58008445    -4853.80749683
  entropy T*S    EENTRO =        -0.00143288
  eigenvalues    EBANDS =       -33.04501015
  atomic energy  EATOM  =      5572.15315367
  Solvation  Ediel_sol  =         0.00000000
  ---------------------------------------------------
  free energy    TOTEN  =       -13.67705782 eV

  energy without entropy =      -13.67562494  energy(sigma->0) =      -13.67634138


--------------------------------------------------------------------------------------------------------




 average (electrostatic) potential at core
  the test charge radii are     1.0053
  (the norm of the test charge is              1.0000)
       1 -41.7242       2 -41.7242       3 -41.7242       4 -41.7242
 
 
 
 E-fermi :   1.5568     XC(G=0): -11.1561     alpha+bet : -7.1179

 Fermi energy:         1.5568355046

 k-point     1 :       0.0417    0.0417    0.0417
  band No.  band energies     occupation 
      1      -5.6667      2.00000
      2      -1.8707      2.00000
      3      -1.8707      2.00000
      4      -1.8707      2.00000
      5      -1.5918      2.00000
      6      -1.5918      2.00000
      7      -1.5918      2.00000
      8      -0.7533      2.00000
      9      -0.7377      2.00000
     10      -0.7377      2.00000
     11      -0.2324      2.00000
     12      -0.2324      2.00000
     13       0.1053      2.00000
     14       0.1053      2.00000
     15       0.1053      2.00000
     16       0.1708      2.00000
     17       0.1708      2.00000
     18       0.1708      2.00000
     19       0.2048      2.00000
     20       0.2048      2.00000
     21       0.2048      2.00000
     22       3.1945      0.00000
     23       3.1945      0.00000
     24       3.1945      0.00000
     25       6.9712      0.00000
     26       6.9712      0.00000

 k-point     2 :       0.1250    0.0417    0.0417
  band No.  band energies     occupation 
      1      -5.5311      2.00000
      2      -1.8797      2.00000
      3      -1.8176      2.00000
      4      -1.8176      2.00000
      5      -1.5638      2.00000
      6      -1.5611      2.00000
      7      -1.5611      2.00000
      8      -0.7806      2.00000
      9      -0.7146      2.00000
     10      -0.7132      2.00000
     11      -0.2586      2.00000
     12      -0.2202      2.00000
     13       0.0256      2.00000
     14       0.0256      2.00000
     15       0.0762      2.00000
     16       0.0762      2.00000
     17       0.0863      2.00000
     18       0.1246      2.00000
     19       0.1714      2.00000
     20       0.2027      2.00000
     21       0.2027      2.00000
     22       2.3009      0.00000
     23       3.4577      0.00000
     24       3.4577      0.00000
     25       7.0431      0.00000
     26       7.0431      0.00000

 k-point     3 :       0.2083    0.0417    0.0417
  band No.  band energies     occupation 
      1      -5.2619      2.00000
      2      -1.9265      2.00000
      3      -1.7193      2.00000
      4      -1.7193      2.00000
      5      -1.5096      2.00000
      6      -1.4992      2.00000
      7      -1.4992      2.00000
      8      -0.8368      2.00000
      9      -0.6657      2.00000
     10      -0.6648      2.00000
     11      -0.3075      2.00000
     12      -0.2002      2.00000
     13      -0.2002      2.00000
     14      -0.1965      2.00000
     15       0.0092      2.00000
     16       0.0092      2.00000
     17       0.0327      2.00000
     18       0.0397      2.00000
     19       0.1193      2.00000
     20       0.2022      2.00000
     21       0.2022      2.00000
     22       1.2611      2.00000
     23       3.9249      0.00000
     24       3.9249      0.00000
     25       7.1906      0.00000
     26       7.1906      0.00000

 k-point     4 :       0.2917    0.0417    0.0417
  band No.  band energies     occupation 
      1      -4.8643      2.00000
      2      -2.0876      2.00000
      3      -1.5927      2.00000
      4      -1.5927      2.00000
      5      -1.4327      2.00000
      6      -1.4058      2.00000
      7      -1.4058      2.00000
      8      -0.9163      2.00000
      9      -0.5960      2.00000
     10      -0.5938      2.00000
     11      -0.4553      2.00000
     12      -0.4553      2.00000
     13      -0.3693      2.00000
     14      -0.1628      2.00000
     15      -0.1178      2.00000
     16      -0.0790      2.00000
     17      -0.0790      2.00000
     18      -0.0460      2.00000
     19       0.0697      2.00000
     20       0.2022      2.00000
     21       0.2022      2.00000
     22       0.4168      2.00000
     23       4.5359      0.00000
     24       4.5359      0.00000
     25       7.4183      0.00000
     26       7.4183      0.00000

 k-point     5 :       0.3750    0.0417    0.0417
  band No.  band energies     occupation 
      1      -4.3488      2.00000
      2      -2.4752      2.00000
      3      -1.4655      2.00000
      4      -1.4655      2.00000
      5      -1.3379      2.00000
      6      -1.2805      2.00000
      7      -1.2805      2.00000
      8      -1.0134      2.00000
      9      -0.7040      2.00000
     10      -0.7040      2.00000
     11      -0.5280      2.00000
     12      -0.5026      2.00000
     13      -0.4111      2.00000
     14      -0.3562      2.00000
     15      -0.1713      2.00000
     16      -0.1713      2.00000
     17      -0.1570      2.00000
     18      -0.1213      2.00000
     19      -0.0205      2.00000
     20       0.0229      2.00000
     21       0.2024      2.00000
     22       0.2024      2.00000
     23       5.2524      0.00000
     24       5.2524      0.00000
     25       7.6549      0.00000
     26       7.6549      0.00000

 k-point     6 :       0.4583    0.0417    0.0417
  band No.  band energies     occupation 
      1      -3.7364      2.00000
      2      -3.0756      2.00000
      3      -1.3804      2.00000
      4      -1.3804      2.00000
      5      -1.2317      2.00000
      6      -1.1229      2.00000
      7      -1.1229      2.00000
      8      -1.1210      2.00000
      9      -0.9282      2.00000
     10      -0.9282      2.00000
     11      -0.5296      2.00000
     12      -0.5097      2.00000
     13      -0.3955      2.00000
     14      -0.3436      2.00000
     15      -0.2777      2.00000
     16      -0.2349      2.00000
     17      -0.2349      2.00000
     18      -0.2108      2.00000
     19      -0.0748      2.00000
     20      -0.0259      2.00000
     21       0.2025      2.00000
     22       0.2025      2.00000
     23       6.0520      0.00000
     24       6.0520      0.00000
     25       6.9195      0.00000
     26       6.9195      0.00000

 k-point     7 :       0.1250    0.1250    0.0417
  band No.  band energies     occupation 
      1      -5.3963      2.00000
      2      -1.8235      2.00000
      3      -1.8235      2.00000
      4      -1.7683      2.00000
      5      -1.5342      2.00000
      6      -1.5342      2.00000
      7      -1.5317      2.00000
      8      -0.7959      2.00000
      9      -0.7019      2.00000
     10      -0.6942      2.00000
     11      -0.2644      2.00000
     12      -0.2232      2.00000
     13      -0.0684      2.00000
     14      -0.0450      2.00000
     15      -0.0450      2.00000
     16       0.0365      2.00000
     17       0.0695      2.00000
     18       0.0695      2.00000
     19       0.1709      2.00000
     20       0.1709      2.00000
     21       0.1816      2.00000
     22       2.5495      0.00000
     23       2.5495      0.00000
     24       3.7019      0.00000
     25       7.1163      0.00000
     26       8.2529      0.00000

 k-point     8 :       0.2083    0.1250    0.0417
  band No.  band energies     occupation 
      1      -5.1291      2.00000
      2      -1.8634      2.00000
      3      -1.7193      2.00000
      4      -1.6772      2.00000
      5      -1.4821      2.00000
      6      -1.4745      2.00000
      7      -1.4727      2.00000
      8      -0.8428      2.00000
      9      -0.6602      2.00000
     10      -0.6568      2.00000
     11      -0.3023      2.00000
     12      -0.2789      2.00000
     13      -0.2589      2.00000
     14      -0.1991      2.00000
     15      -0.1652      2.00000
     16      -0.0230      2.00000
     17       0.0101      2.00000
     18       0.0229      2.00000
     19       0.1224      2.00000
     20       0.1666      2.00000
     21       0.1686      2.00000
     22       1.5208      1.69204
     23       2.9736      0.00000
     24       4.1442      0.00000
     25       7.2625      0.00000
     26       8.4371      0.00000

 k-point     9 :       0.2917    0.1250    0.0417
  band No.  band energies     occupation 
      1      -4.7348      2.00000
      2      -2.0129      2.00000
      3      -1.5842      2.00000
      4      -1.5587      2.00000
      5      -1.4082      2.00000
      6      -1.3861      2.00000
      7      -1.3846      2.00000
      8      -0.9161      2.00000
      9      -0.6097      2.00000
     10      -0.5923      2.00000
     11      -0.5315      2.00000
     12      -0.4880      2.00000
     13      -0.3492      2.00000
     14      -0.3410      2.00000
     15      -0.1574      2.00000
     16      -0.1029      2.00000
     17      -0.0739      2.00000
     18      -0.0658      2.00000
     19       0.0680      2.00000
     20       0.1629      2.00000
     21       0.1635      2.00000
     22       0.6989      2.00000
     23       3.5130      0.00000
     24       4.7330      0.00000
     25       7.3577      0.00000
     26       7.7311      0.00000

 k-point    10 :       0.3750    0.1250    0.0417
  band No.  band energies     occupation 
      1      -4.2242      2.00000
      2      -2.3849      2.00000
      3      -1.4457      2.00000
      4      -1.4324      2.00000
      5      -1.3173      2.00000
      6      -1.2806      2.00000
      7      -1.2652      2.00000
      8      -1.0076      2.00000
      9      -0.7700      2.00000
     10      -0.7169      2.00000
     11      -0.5828      2.00000
     12      -0.5247      2.00000
     13      -0.5056      2.00000
     14      -0.3577      2.00000
     15      -0.1868      2.00000
     16      -0.1769      2.00000
     17      -0.1654      2.00000
     18      -0.1045      2.00000
     19      -0.0093      2.00000
     20       0.1607      2.00000
     21       0.1618      2.00000
     22       0.2260      2.00000
     23       4.1411      0.00000
     24       5.4322      0.00000
     25       6.5291      0.00000
     26       7.9155      0.00000

 k-point    11 :       0.4583    0.1250    0.0417
  band No.  band energies     occupation 
      1      -3.6195      2.00000
      2      -2.9701      2.00000
      3      -1.3468      2.00000
      4      -1.3403      2.00000
      5      -1.2156      2.00000
      6      -1.1594      2.00000
      7      -1.1233      2.00000
      8      -1.1099      2.00000
      9      -0.9726      2.00000
     10      -0.9237      2.00000
     11      -0.6085      2.00000
     12      -0.6022      2.00000
     13      -0.4050      2.00000
     14      -0.2936      2.00000
     15      -0.2807      2.00000
     16      -0.2415      2.00000
     17      -0.2332      2.00000
     18      -0.1445      2.00000
     19      -0.0416      2.00000
     20       0.0405      2.00000
     21       0.1601      2.00000
     22       0.1606      2.00000
     23       4.8509      0.00000
     24       5.6458      0.00000
     25       6.2199      0.00000
     26       7.0821      0.00000

 k-point    12 :       0.2083    0.2083    0.0417
  band No.  band energies     occupation 
      1      -4.8661      2.00000
      2      -1.7461      2.00000
      3      -1.7461      2.00000
      4      -1.6010      2.00000
      5      -1.4267      2.00000
      6      -1.4267      2.00000
      7      -1.4189      2.00000
      8      -0.8694      2.00000
      9      -0.6410      2.00000
     10      -0.6343      2.00000
     11      -0.4130      2.00000
     12      -0.4130      2.00000
     13      -0.3843      2.00000
     14      -0.3168      2.00000
     15      -0.1766      2.00000
     16      -0.0786      2.00000
     17      -0.0171      2.00000
     18      -0.0171      2.00000
     19       0.1065      2.00000
     20       0.1065      2.00000
     21       0.1313      2.00000
     22       1.9256      0.00000
     23       1.9256      0.00000
     24       4.5512      0.00000
     25       7.2537      0.00000
     26       7.6211      0.00000

 k-point    13 :       0.2917    0.2083    0.0417
[...]
     13      -0.6198      2.00000
     14      -0.5781      2.00000
     15      -0.5781      2.00000
     16      -0.5707      2.00000
     17      -0.0815      2.00000
     18      -0.0215      2.00000
     19      -0.0215      2.00000
     20      -0.0023      2.00000
     21       0.6879      2.00000
     22       1.1915      2.00000
     23       1.1915      2.00000
     24       1.7870      0.00000
     25       5.7521      0.00000
     26       6.5120      0.00000

 k-point    47 :       0.2917    0.2917    0.2917
  band No.  band energies     occupation 
      1      -3.4386      2.00000
      2      -1.6932      2.00000
      3      -1.6932      2.00000
      4      -1.6932      2.00000
      5      -1.0669      2.00000
      6      -1.0669      2.00000
      7      -1.0669      2.00000
      8      -0.8171      2.00000
      9      -0.7247      2.00000
     10      -0.7247      2.00000
     11      -0.7247      2.00000
     12      -0.6619      2.00000
     13      -0.6619      2.00000
     14      -0.4496      2.00000
     15      -0.4496      2.00000
     16      -0.4496      2.00000
     17      -0.1096      2.00000
     18      -0.1096      2.00000
     19       0.1439      2.00000
     20       0.1439      2.00000
     21       0.1439      2.00000
     22       2.1426      0.00000
     23       2.1426      0.00000
     24       2.1426      0.00000
     25       6.0511      0.00000
     26       6.0511      0.00000

 k-point    48 :       0.3750    0.2917    0.2917
  band No.  band energies     occupation 
      1      -3.0458      2.00000
      2      -1.9189      2.00000
      3      -1.7010      2.00000
      4      -1.7010      2.00000
      5      -0.9988      2.00000
      6      -0.9988      2.00000
      7      -0.9499      2.00000
      8      -0.7581      2.00000
      9      -0.7319      2.00000
     10      -0.6861      2.00000
     11      -0.6718      2.00000
     12      -0.6718      2.00000
     13      -0.6646      2.00000
     14      -0.5316      2.00000
     15      -0.5007      2.00000
     16      -0.5007      2.00000
     17      -0.0619      2.00000
     18      -0.0229      2.00000
     19       0.1242      2.00000
     20       0.1242      2.00000
     21       0.1373      2.00000
     22       1.2531      2.00000
     23       2.5384      0.00000
     24       2.5384      0.00000
     25       5.1124      0.00000
     26       5.1124      0.00000

 k-point    49 :       0.4583    0.2917    0.2917
  band No.  band energies     occupation 
      1      -2.6258      2.00000
      2      -2.2347      2.00000
      3      -1.7063      2.00000
      4      -1.7063      2.00000
      5      -0.9732      2.00000
      6      -0.9732      2.00000
      7      -0.8341      2.00000
      8      -0.7437      2.00000
      9      -0.7306      2.00000
     10      -0.7289      2.00000
     11      -0.6429      2.00000
     12      -0.6134      2.00000
     13      -0.6134      2.00000
     14      -0.5976      2.00000
     15      -0.5302      2.00000
     16      -0.5302      2.00000
     17       0.0507      2.00000
     18       0.1017      2.00000
     19       0.1017      2.00000
     20       0.1052      2.00000
     21       0.1482      2.00000
     22       0.5826      2.00000
     23       2.9199      0.00000
     24       2.9199      0.00000
     25       4.4544      0.00000
     26       4.4544      0.00000

 k-point    50 :       0.3750    0.3750    0.2917
  band No.  band energies     occupation 
      1      -2.7291      2.00000
      2      -1.8939      2.00000
      3      -1.8939      2.00000
      4      -1.7685      2.00000
      5      -0.9388      2.00000
      6      -0.8967      2.00000
      7      -0.8967      2.00000
      8      -0.7045      2.00000
      9      -0.6878      2.00000
     10      -0.6215      2.00000
     11      -0.6215      2.00000
     12      -0.5978      2.00000
     13      -0.5687      2.00000
     14      -0.5687      2.00000
     15      -0.5677      2.00000
     16      -0.5528      2.00000
     17      -0.0564      2.00000
     18       0.0838      2.00000
     19       0.1137      2.00000
     20       0.1224      2.00000
     21       0.1224      2.00000
     22       1.5926      0.31147
     23       1.5926      0.31147
     24       2.7236      0.00000
     25       4.3799      0.00000
     26       5.6306      0.00000

 k-point    51 :       0.4583    0.3750    0.2917
  band No.  band energies     occupation 
      1      -2.4121      2.00000
      2      -2.1295      2.00000
      3      -1.8637      2.00000
      4      -1.8229      2.00000
      5      -0.9022      2.00000
      6      -0.8881      2.00000
      7      -0.8077      2.00000
      8      -0.7435      2.00000
      9      -0.6785      2.00000
     10      -0.6443      2.00000
     11      -0.6096      2.00000
     12      -0.6032      2.00000
     13      -0.5439      2.00000
     14      -0.5165      2.00000
     15      -0.4931      2.00000
     16      -0.4772      2.00000
     17       0.0164      2.00000
     18       0.0891      2.00000
     19       0.0935      2.00000
     20       0.0960      2.00000
     21       0.3220      2.00000
     22       0.8341      2.00000
     23       2.0428      0.00000
     24       2.5237      0.00000
     25       4.3173      0.00000
     26       4.8373      0.00000

 k-point    52 :       0.4583    0.4583    0.2917
  band No.  band energies     occupation 
      1      -2.2107      2.00000
      2      -2.0296      2.00000
      3      -2.0296      2.00000
      4      -1.9295      2.00000
      5      -0.8472      2.00000
      6      -0.8161      2.00000
      7      -0.8161      2.00000
      8      -0.7661      2.00000
      9      -0.6879      2.00000
     10      -0.6620      2.00000
     11      -0.6620      2.00000
     12      -0.6491      2.00000
     13      -0.3961      2.00000
     14      -0.3961      2.00000
     15      -0.3833      2.00000
     16      -0.3712      2.00000
     17       0.0055      2.00000
     18       0.0570      2.00000
     19       0.0570      2.00000
     20       0.0651      2.00000
     21       0.6708      2.00000
     22       1.2567      2.00000
     23       1.2567      2.00000
     24       1.8511      0.00000
     25       4.7519      0.00000
     26       5.4326      0.00000

 k-point    53 :       0.3750    0.3750    0.3750
  band No.  band energies     occupation 
      1      -2.5092      2.00000
      2      -1.9332      2.00000
      3      -1.9332      2.00000
      4      -1.9332      2.00000
      5      -0.8585      2.00000
      6      -0.8585      2.00000
      7      -0.8585      2.00000
      8      -0.7150      2.00000
      9      -0.7150      2.00000
     10      -0.6391      2.00000
     11      -0.6391      2.00000
     12      -0.6391      2.00000
     13      -0.4256      2.00000
     14      -0.4256      2.00000
     15      -0.4256      2.00000
     16      -0.2764      2.00000
     17       0.0264      2.00000
     18       0.0264      2.00000
     19       0.1329      2.00000
     20       0.1329      2.00000
     21       0.1329      2.00000
     22       1.8366      0.00000
     23       1.8366      0.00000
     24       1.8366      0.00000
     25       4.7445      0.00000
     26       4.7445      0.00000

 k-point    54 :       0.4583    0.3750    0.3750
  band No.  band energies     occupation 
      1      -2.2992      2.00000
      2      -2.1083      2.00000
      3      -1.9542      2.00000
      4      -1.9542      2.00000
      5      -0.8384      2.00000
      6      -0.8384      2.00000
      7      -0.7915      2.00000
      8      -0.7437      2.00000
      9      -0.7155      2.00000
     10      -0.6896      2.00000
     11      -0.6700      2.00000
     12      -0.6700      2.00000
     13      -0.2998      2.00000
     14      -0.2998      2.00000
     15      -0.2975      2.00000
     16      -0.1866      2.00000
     17       0.0880      2.00000
     18       0.1181      2.00000
     19       0.1181      2.00000
     20       0.1241      2.00000
     21       0.3435      2.00000
     22       1.0124      2.00000
     23       2.0604      0.00000
     24       2.0604      0.00000
     25       4.1887      0.00000
     26       4.1887      0.00000

 k-point    55 :       0.4583    0.4583    0.3750
  band No.  band energies     occupation 
      1      -2.1882      2.00000
      2      -2.0750      2.00000
      3      -2.0750      2.00000
      4      -2.0246      2.00000
      5      -0.8019      2.00000
      6      -0.7866      2.00000
      7      -0.7866      2.00000
      8      -0.7522      2.00000
      9      -0.7332      2.00000
     10      -0.7147      2.00000
     11      -0.7147      2.00000
     12      -0.7083      2.00000
     13      -0.1534      2.00000
     14      -0.1382      2.00000
     15      -0.1382      2.00000
     16      -0.0312      2.00000
     17       0.0725      2.00000
     18       0.1099      2.00000
     19       0.1102      2.00000
     20       0.1102      2.00000
     21       0.7152      2.00000
     22       1.3575      2.00000
     23       1.3575      2.00000
     24       1.7898      0.00000
     25       4.1313      0.00000
     26       4.5814      0.00000

 k-point    56 :       0.4583    0.4583    0.4583
  band No.  band energies     occupation 
      1      -2.1526      2.00000
      2      -2.0989      2.00000
      3      -2.0989      2.00000
      4      -2.0989      2.00000
      5      -0.7689      2.00000
      6      -0.7689      2.00000
      7      -0.7689      2.00000
      8      -0.7522      2.00000
      9      -0.7522      2.00000
     10      -0.7437      2.00000
     11      -0.7437      2.00000
     12      -0.7437      2.00000
     13       0.0308      2.00000
     14       0.0308      2.00000
     15       0.0308      2.00000
     16       0.1142      2.00000
     17       0.1142      2.00000
     18       0.1266      2.00000
     19       0.1266      2.00000
     20       0.1266      2.00000
     21       0.9973      2.00000
     22       1.4586      1.99456
     23       1.4586      1.99456
     24       1.4586      1.99456
     25       4.0753      0.00000
     26       4.0753      0.00000


--------------------------------------------------------------------------------------------------------


 soft charge-density along one line, spin component           1
         0         1         2         3         4         5         6         7         8         9
 total charge-density along one line
 
 pseudopotential strength for first ion, spin component:           1
 -7.638  -0.000   0.000   0.000   0.000   0.284   0.000  -0.000
 -0.000  -7.638   0.000  -0.000  -0.000   0.000   0.284  -0.000
  0.000   0.000  -7.625  -0.000  -0.000  -0.000  -0.000   0.278
  0.000  -0.000  -0.000  -7.638  -0.000  -0.000   0.000   0.000
  0.000  -0.000  -0.000  -0.000  -7.625  -0.000   0.000   0.000
  0.284   0.000  -0.000  -0.000  -0.000   1.450  -0.000   0.000
  0.000   0.284  -0.000   0.000   0.000  -0.000   1.450   0.000
 -0.000  -0.000   0.278   0.000   0.000   0.000   0.000   1.453
 -0.000   0.000   0.000   0.284   0.000   0.000  -0.000  -0.000
 -0.000   0.000   0.000   0.000   0.278   0.000  -0.000  -0.000
  0.000  -0.000   0.000   0.000  -0.000   0.000  -0.000  -0.000
 -0.000   0.000   0.000  -0.000   0.000   0.000  -0.000  -0.000
  0.000  -0.000   0.000   0.000   0.000  -0.000   0.000   0.000
  0.000  -0.000  -0.000   0.000  -0.000   0.000   0.000   0.000
 -0.000   0.000  -0.000  -0.000   0.000   0.000   0.000   0.000
 -0.000   0.000  -0.000  -0.000  -0.000   0.000  -0.000   0.000
 -0.000  -0.000   0.000  -0.000   0.000   0.000   0.000  -0.000
  0.000  -0.000   0.000   0.000  -0.000  -0.000   0.000  -0.000
 total augmentation occupancy for first ion, spin component:           1
  1.894   0.000   0.000   0.000  -0.000  -0.056  -0.000   0.000  -0.000  -0.000   0.000  -0.000  -0.000   0.000  -0.000   0.000
 -0.000   1.894  -0.000   0.000   0.000   0.000  -0.056  -0.000   0.000   0.000   0.000   0.000  -0.000  -0.000   0.000   0.000
  0.000   0.000   1.909  -0.000   0.000  -0.000   0.000  -0.081   0.000  -0.000  -0.000   0.000   0.000  -0.000   0.000   0.000
 -0.000   0.000  -0.000   1.894  -0.000  -0.000  -0.000   0.000  -0.056  -0.000  -0.000   0.000  -0.000  -0.000   0.000   0.000
 -0.000   0.000   0.000  -0.000   1.909   0.000  -0.000  -0.000  -0.000  -0.081   0.000   0.000   0.000  -0.000   0.000  -0.000
 -0.056   0.000  -0.000  -0.000   0.000   0.036  -0.000  -0.000   0.000   0.000  -0.000  -0.000  -0.000  -0.000   0.000   0.000
 -0.000  -0.056  -0.000  -0.000  -0.000   0.000   0.036   0.000   0.000  -0.000   0.000  -0.000   0.000   0.000  -0.000   0.000
  0.000   0.000  -0.081   0.000  -0.000  -0.000   0.000   0.033  -0.000  -0.000  -0.000   0.000   0.000  -0.000  -0.000   0.000
 -0.000  -0.000  -0.000  -0.056  -0.000   0.000   0.000   0.000   0.036   0.000  -0.000   0.000   0.000  -0.000   0.000   0.000
 -0.000   0.000  -0.000  -0.000  -0.081  -0.000  -0.000  -0.000   0.000   0.033  -0.000   0.000  -0.000   0.000   0.000   0.000
 -0.000  -0.000   0.000   0.000   0.000  -0.000   0.000   0.000   0.000  -0.000   1.018  -0.229   0.000   0.000   0.000   0.000
 -0.000   0.000   0.000   0.000   0.000  -0.000  -0.000  -0.000   0.000  -0.000  -0.229   0.078   0.000   0.000   0.000   0.000
 -0.000  -0.000   0.000  -0.000   0.000  -0.000   0.000  -0.000   0.000   0.000   0.000   0.000   0.109  -0.000  -0.000  -0.007
  0.000  -0.000   0.000  -0.000   0.000  -0.000   0.000   0.000  -0.000   0.000   0.000   0.000  -0.000   0.109  -0.000   0.000
 -0.000   0.000  -0.000   0.000  -0.000   0.000  -0.000   0.000   0.000   0.000   0.000   0.000   0.000   0.000   0.109  -0.000
  0.000   0.000   0.000   0.000   0.000   0.000   0.000   0.000   0.000   0.000   0.000   0.000  -0.007   0.000   0.000   0.001
 -0.000  -0.000   0.000   0.000  -0.000  -0.000   0.000   0.000  -0.000   0.000   0.000   0.000  -0.000  -0.007  -0.000  -0.000
  0.000   0.000  -0.000   0.000   0.000  -0.000  -0.000  -0.000   0.000   0.000   0.000   0.000   0.000   0.000  -0.007   0.000


------------------------ aborting loop because EDIFF is reached ----------------------------------------


    CHARGE:  cpu time      0.0226: real time      0.0250
    FORLOC:  cpu time      0.0003: real time      0.0003
    FORNL :  cpu time      0.1034: real time      0.1046
    STRESS:  cpu time      0.2226: real time      0.2231
    FORCOR:  cpu time      0.0055: real time      0.0055
    FORHAR:  cpu time      0.0008: real time      0.0009
    MIXING:  cpu time      0.0003: real time      0.0003
    OFIELD:  cpu time      0.0000: real time      0.0000

  FORCE on cell =-STRESS in cart. coord.  units (eV):
  Direction    XX          YY          ZZ          XY          YZ          ZX
  --------------------------------------------------------------------------------------
  Alpha Z   318.01300   318.01300   318.01300
  Ewald   -1331.42487 -1331.42487 -1331.42487     0.00000    -0.00000    -0.00000
  Hartree   488.50663   488.50663   488.50663    -0.00000    -0.00000    -0.00000
  E(xc)    -249.97896  -249.97896  -249.97896    -0.00000     0.00000    -0.00000
  Local     388.99711   388.99711   388.99711     0.00000     0.00000    -0.00000
  n-local  -153.17532  -158.38788  -159.25154     0.13379     1.85740     0.73131
  augment   224.14566   224.14566   224.14566     0.00000    -0.00000     0.00000
  Kinetic   316.06774   308.11756   303.08170    -2.93983     0.50736    -0.95638
  Fock        0.00000     0.00000     0.00000     0.00000     0.00000     0.00000
  -------------------------------------------------------------------------------------
  Total      -9.59068    -9.59068    -9.59068     0.00000     0.00000     0.00000
  in kB    -240.09323  -240.09323  -240.09323     0.00000     0.00000     0.00000
  external pressure =     -240.09 kB  Pullay stress =        0.00 kB


 VOLUME and BASIS-vectors are now :
 -----------------------------------------------------------------------------
  energy-cutoff  :      292.00
  volume of cell :       64.00
      direct lattice vectors                 reciprocal lattice vectors
     4.000000000  0.000000000  0.000000000     0.250000000  0.000000000  0.000000000
     0.000000000  4.000000000  0.000000000     0.000000000  0.250000000  0.000000000
     0.000000000  0.000000000  4.000000000     0.000000000  0.000000000  0.250000000

  length of vectors
     4.000000000  4.000000000  4.000000000     0.250000000  0.250000000  0.250000000


 FORCES acting on ions
    electron-ion (+dipol)            ewald-force                    non-local-force                 convergence-correction
 -----------------------------------------------------------------------------------------------
   -.258E-13 -.529E-13 -.477E-13   -.137E-14 -.179E-14 -.112E-13   -.662E-23 0.199E-22 -.414E-23   0.974E-15 0.680E-13 -.838E-13
   0.558E-12 0.583E-12 0.642E-12   -.395E-16 0.861E-14 -.111E-13   0.000E+00 -.141E-22 0.165E-23   0.902E-13 0.524E-13 -.102E-12
   -.275E-13 0.577E-12 0.545E-12   0.137E-14 0.184E-14 0.117E-13   -.207E-23 0.227E-23 0.662E-23   0.106E-13 0.855E-13 -.353E-13
   0.577E-12 -.340E-13 -.828E-12   0.271E-14 -.616E-14 0.117E-13   0.000E+00 -.132E-22 -.993E-23   0.704E-13 0.665E-13 -.127E-13
 -----------------------------------------------------------------------------------------------
   0.108E-11 0.107E-11 0.311E-12   0.267E-14 0.249E-14 0.116E-14   -.869E-23 -.517E-23 -.579E-23   0.172E-12 0.272E-12 -.234E-12
 
 
 POSITION                                       TOTAL-FORCE (eV/Angst)
 -----------------------------------------------------------------------------------
      0.00000      0.00000      0.00000        -0.000000     -0.000000     -0.000000
      2.00000      2.00000      0.00000        -0.000000      0.000000     -0.000000
      0.00000      2.00000      2.00000         0.000000     -0.000000      0.000000
      2.00000      0.00000      2.00000         0.000000     -0.000000     -0.000000
 -----------------------------------------------------------------------------------
    total drift:                                0.000000      0.000000      0.000000


--------------------------------------------------------------------------------------------------------



  FREE ENERGIE OF THE ION-ELECTRON SYSTEM (eV)
  ---------------------------------------------------
  free  energy   TOTEN  =       -13.67705782 eV

  energy  without entropy=      -13.67562494  energy(sigma->0) =      -13.67634138
 


--------------------------------------------------------------------------------------------------------


    POTLOK:  cpu time      0.0066: real time      0.0067


--------------------------------------------------------------------------------------------------------


 writing wavefunctions
     LOOP+:  cpu time      8.1147: real time      8.2303
    4ORBIT:  cpu time      0.0000: real time      0.0000

 total amount of memory used by VASP MPI-rank0    47781. kBytes
=======================================================================

   base      :      30000. kBytes
   nonl-proj :       6014. kBytes
   fftplans  :        848. kBytes
   grid      :       1399. kBytes
   one-center:         62. kBytes
   wavefun   :       9458. kBytes
 
  
  
 General timing and accounting informations for this job:
 ========================================================
  
                  Total CPU time used (sec):        8.412
                            User time (sec):        7.770
                          System time (sec):        0.642
                         Elapsed time (sec):        8.993
  
                   Maximum memory used (kb):      134504.
                   Average memory used (kb):          N/A
  
                          Minor page faults:        15733
                          Major page faults:            5
                 Voluntary context switches:          223
