<?xml version="1.0" encoding="ISO-8859-1"?>
<modeling>
 <generator>
  <i name="program" type="string">vasp </i>
  <i name="version" type="string">6.3.0  </i>
  <i name="subversion" type="string">20Jan22 (build Sep 29 2023 15:57:01) complex                          parallel </i>
  <i name="platform" type="string">LinuxIFC </i>
  <i name="date" type="string">2023 11 06 </i>
  <i name="time" type="string">15:50:42 </i>
 </generator>
 <incar>
  <i type="string" name="SYSTEM">fcc Cu</i>
  <i type="int" name="ISTART">     0</i>
  <i type="int" name="ICHARG">     0</i>
  <i name="ENCUT">    292.00000000</i>
  <i type="int" name="ISMEAR">     0</i>
  <i name="SIGMA">      0.05000000</i>
 </incar>
 <primitive_cell>
  <structure name="primitive_cell" >
   <crystal>
    <varray name="basis" >
     <v>       2.00000000      -2.00000000       0.00000000 </v>
     <v>       2.00000000       0.00000000       2.00000000 </v>
     <v>       0.00000000      -2.00000000       2.00000000 </v>
    </varray>
    <i name="volume">     16.00000000 </i>
    <varray name="rec_basis" >
     <v>       0.25000000      -0.25000000      -0.25000000 </v>
     <v>       0.25000000       0.25000000       0.25000000 </v>
     <v>      -0.25000000      -0.25000000       0.25000000 </v>
    </varray>
   </crystal>
   <varray name="positions" >
    <v>       0.00000000       0.00000000       0.00000000 </v>
   </varray>
  </structure>
  <varray name="primitive_index" >
   <v type="int" >        1 </v>
  </varray>
 </primitive_cell>
 <kpoints>
  <generation param="Monkhorst-Pack">
   <v type="int" name="divisions">      12       12       12 </v>
   <v name="usershift">      0.00000000       0.00000000       0.00000000 </v>
   <v name="genvec1">      0.08333333       0.00000000       0.00000000 </v>
   <v name="genvec2">      0.00000000       0.08333333       0.00000000 </v>
   <v name="genvec3">      0.00000000       0.00000000       0.08333333 </v>
   <v name="shift">      0.50000000       0.50000000       0.50000000 </v>
  </generation>
  <varray name="kpointlist" >
   <v>       0.04166667       0.04166667       0.04166667 </v>
   <v>       0.12500000       0.04166667       0.04166667 </v>
   <v>       0.20833333       0.04166667       0.04166667 </v>
   <v>       0.29166667       0.04166667       0.04166667 </v>
   <v>       0.37500000       0.04166667       0.04166667 </v>
   <v>       0.45833333       0.04166667       0.04166667 </v>
   <v>       0.12500000       0.12500000       0.04166667 </v>
   <v>       0.20833333       0.12500000       0.04166667 </v>
   <v>       0.29166667       0.12500000       0.04166667 </v>
   <v>       0.37500000       0.12500000       0.04166667 </v>
   <v>       0.45833333       0.12500000       0.04166667 </v>
   <v>       0.20833333       0.20833333       0.04166667 </v>
   <v>       0.29166667       0.20833333       0.04166667 </v>
   <v>       0.37500000       0.20833333       0.04166667 </v>
   <v>       0.45833333       0.20833333       0.04166667 </v>
   <v>       0.29166667       0.29166667       0.04166667 </v>
   <v>       0.37500000       0.29166667       0.04166667 </v>
   <v>       0.45833333       0.29166667       0.04166667 </v>
   <v>       0.37500000       0.37500000       0.04166667 </v>
   <v>       0.45833333       0.37500000       0.04166667 </v>
   <v>       0.45833333       0.45833333       0.04166667 </v>
   <v>       0.12500000       0.12500000       0.12500000 </v>
   <v>       0.20833333       0.12500000       0.12500000 </v>
   <v>       0.29166667       0.12500000       0.12500000 </v>
   <v>       0.37500000       0.12500000       0.12500000 </v>
   <v>       0.45833333       0.12500000       0.12500000 </v>
   <v>       0.20833333       0.20833333       0.12500000 </v>
   <v>       0.29166667       0.20833333       0.12500000 </v>
   <v>       0.37500000       0.20833333       0.12500000 </v>
   <v>       0.45833333       0.20833333       0.12500000 </v>
   <v>       0.29166667       0.29166667       0.12500000 </v>
   <v>       0.37500000       0.29166667       0.12500000 </v>
   <v>       0.45833333       0.29166667       0.12500000 </v>
   <v>       0.37500000       0.37500000       0.12500000 </v>
   <v>       0.45833333       0.37500000       0.12500000 </v>
   <v>       0.45833333       0.45833333       0.12500000 </v>
   <v>       0.20833333       0.20833333       0.20833333 </v>
   <v>       0.29166667       0.20833333       0.20833333 </v>
   <v>       0.37500000       0.20833333       0.20833333 </v>
   <v>       0.45833333       0.20833333       0.20833333 </v>
   <v>       0.29166667       0.29166667       0.20833333 </v>
   <v>       0.37500000       0.29166667       0.20833333 </v>
   <v>       0.45833333       0.29166667       0.20833333 </v>
   <v>       0.37500000       0.37500000       0.20833333 </v>
   <v>       0.45833333       0.37500000       0.20833333 </v>
   <v>       0.45833333       0.45833333       0.20833333 </v>
   <v>       0.29166667       0.29166667       0.29166667 </v>
   <v>       0.37500000       0.29166667       0.29166667 </v>
   <v>       0.45833333       0.29166667       0.29166667 </v>
   <v>       0.37500000       0.37500000       0.29166667 </v>
   <v>       0.45833333       0.37500000       0.29166667 </v>
   <v>       0.45833333       0.45833333       0.29166667 </v>
   <v>       0.37500000       0.37500000       0.37500000 </v>
   <v>       0.45833333       0.37500000       0.37500000 </v>
   <v>       0.45833333       0.45833333       0.37500000 </v>
   <v>       0.45833333       0.45833333       0.45833333 </v>
  </varray>
  <varray name="weights" >
   <v>       0.00462963 </v>
   <v>       0.01388889 </v>
   <v>       0.01388889 </v>
   <v>       0.01388889 </v>
   <v>       0.01388889 </v>
   <v>       0.01388889 </v>
   <v>       0.01388889 </v>
   <v>       0.02777778 </v>
   <v>       0.02777778 </v>
   <v>       0.02777778 </v>
   <v>       0.02777778 </v>
   <v>       0.01388889 </v>
   <v>       0.02777778 </v>
   <v>       0.02777778 </v>
   <v>       0.02777778 </v>
   <v>       0.01388889 </v>
   <v>       0.02777778 </v>
   <v>       0.02777778 </v>
   <v>       0.01388889 </v>
   <v>       0.02777778 </v>
   <v>       0.01388889 </v>
   <v>       0.00462963 </v>
   <v>       0.01388889 </v>
   <v>       0.01388889 </v>
   <v>       0.01388889 </v>
   <v>       0.01388889 </v>
   <v>       0.01388889 </v>
   <v>       0.02777778 </v>
   <v>       0.02777778 </v>
   <v>       0.02777778 </v>
   <v>       0.01388889 </v>
   <v>       0.02777778 </v>
   <v>       0.02777778 </v>
   <v>       0.01388889 </v>
   <v>       0.02777778 </v>
   <v>       0.01388889 </v>
   <v>       0.00462963 </v>
   <v>       0.01388889 </v>
   <v>       0.01388889 </v>
   <v>       0.01388889 </v>
   <v>       0.01388889 </v>
   <v>       0.02777778 </v>
   <v>       0.02777778 </v>
   <v>       0.01388889 </v>
   <v>       0.02777778 </v>
   <v>       0.01388889 </v>
   <v>       0.00462963 </v>
   <v>       0.01388889 </v>
   <v>       0.01388889 </v>
   <v>       0.01388889 </v>
   <v>       0.02777778 </v>
   <v>       0.01388889 </v>
   <v>       0.00462963 </v>
   <v>       0.01388889 </v>
   <v>       0.01388889 </v>
   <v>       0.00462963 </v>
  </varray>
 </kpoints>
 <parameters>
  <separator name="general" >
   <i type="string" name="SYSTEM">fcc Cu</i>
   <i type="logical" name="LCOMPAT"> F  </i>
  </separator>
  <separator name="electronic" >
   <i type="string" name="PREC">normal</i>
   <i name="ENMAX">    292.00000000</i>
   <i name="ENAUG">    516.45600000</i>
   <i name="EDIFF">      0.00010000</i>
   <i type="int" name="IALGO">    38</i>
   <i type="int" name="IWAVPR">    10</i>
   <i type="int" name="NBANDS">    26</i>
   <i type="int" name="NBANDSLOW">    -1</i>
   <i type="int" name="NBANDSHIGH">    -1</i>
   <i name="NELECT">     44.00000000</i>
   <i type="int" name="TURBO">     0</i>
   <i type="int" name="IRESTART">     0</i>
   <i type="int" name="NREBOOT">     0</i>
   <i type="int" name="NMIN">     0</i>
   <i name="EREF">      0.00000000</i>
   <separator name="electronic smearing" >
    <i type="int" name="ISMEAR">     0</i>
    <i name="SIGMA">      0.05000000</i>
    <i name="KSPACING">      0.50000000</i>
    <i type="logical" name="KGAMMA"> T  </i>
    <i type="logical" name="KBLOWUP"> T  </i>
   </separator>
   <separator name="electronic projectors" >
    <i type="logical" name="LREAL"> F  </i>
    <v name="ROPT">      0.00000000</v>
    <i type="int" name="LMAXPAW">  -100</i>
    <i type="int" name="LMAXMIX">     2</i>
    <i type="logical" name="NLSPLINE"> F  </i>
   </separator>
   <separator name="electronic startup" >
    <i type="int" name="ISTART">     0</i>
    <i type="int" name="ICHARG">     0</i>
    <i type="int" name="INIWAV">     1</i>
   </separator>
   <separator name="electronic spin" >
    <i type="int" name="ISPIN">     1</i>
    <i type="logical" name="LNONCOLLINEAR"> F  </i>
    <v name="MAGMOM">      1.00000000      1.00000000      1.00000000      1.00000000</v>
    <i name="NUPDOWN">     -1.00000000</i>
    <i type="logical" name="LSORBIT"> F  </i>
    <v name="SAXIS">      0.00000000      0.00000000      1.00000000</v>
    <i type="logical" name="LSPIRAL"> F  </i>
    <v name="QSPIRAL">      0.00000000      0.00000000      0.00000000</v>
    <i type="logical" name="LZEROZ"> F  </i>
   </separator>
   <separator name="electronic exchange-correlation" >
    <i type="logical" name="LASPH"> F  </i>
    <i type="logical" name="LMETAGGA"> F  </i>
   </separator>
   <separator name="electronic convergence" >
    <i type="int" name="NELM">    60</i>
    <i type="int" name="NELMDL">    -5</i>
    <i type="int" name="NELMIN">     2</i>
    <i name="ENINI">    292.00000000</i>
    <separator name="electronic convergence detail" >
     <i type="logical" name="LDIAG"> T  </i>
     <i type="logical" name="LSUBROT"> F  </i>
     <i name="WEIMIN">      0.00000000</i>
     <i name="EBREAK">      0.00000096</i>
     <i name="DEPER">      0.30000000</i>
     <i type="int" name="NRMM">     4</i>
     <i name="TIME">      0.40000000</i>
    </separator>
   </separator>
   <separator name="electronic mixer" >
    <i name="AMIX">      0.40000000</i>
    <i name="BMIX">      1.00000000</i>
    <i name="AMIN">      0.10000000</i>
    <i name="AMIX_MAG">      1.60000000</i>
    <i name="BMIX_MAG">      1.00000000</i>
    <separator name="electronic mixer details" >
     <i type="int" name="IMIX">     4</i>
     <i type="logical" name="MIXFIRST"> F  </i>
     <i type="int" name="MAXMIX">   -45</i>
     <i name="WC">    100.00000000</i>
     <i type="int" name="INIMIX">     1</i>
     <i type="int" name="MIXPRE">     1</i>
     <i type="int" name="MREMOVE">     5</i>
    </separator>
   </separator>
   <separator name="electronic dipolcorrection" >
    <i type="logical" name="LDIPOL"> F  </i>
    <i type="logical" name="LMONO"> F  </i>
    <i type="int" name="IDIPOL">     0</i>
    <i name="EPSILON">      1.00000000</i>
    <v name="DIPOL">   -100.00000000   -100.00000000   -100.00000000</v>
    <i name="EFIELD">      0.00000000</i>
   </separator>
  </separator>
  <separator name="grids" >
   <i type="int" name="NGX">    18</i>
   <i type="int" name="NGY">    18</i>
   <i type="int" name="NGZ">    18</i>
   <i type="int" name="NGXF">    36</i>
   <i type="int" name="NGYF">    36</i>
   <i type="int" name="NGZF">    36</i>
   <i type="logical" name="ADDGRID"> F  </i>
  </separator>
  <separator name="ionic" >
   <i type="int" name="NSW">     0</i>
   <i type="int" name="IBRION">    -1</i>
   <i type="int" name="MDALGO">     0</i>
   <i type="int" name="ISIF">     2</i>
   <i name="PSTRESS">      0.00000000</i>
   <i name="EDIFFG">      0.00100000</i>
   <i type="int" name="NFREE">     0</i>
   <i name="POTIM">      0.50000000</i>
   <i name="SMASS">     -3.00000000</i>
   <i name="SCALEE">      1.00000000</i>
  </separator>
  <separator name="ionic md" >
   <i name="TEBEG">      0.00010000</i>
   <i name="TEEND">      0.00010000</i>
   <i type="int" name="NBLOCK">     1</i>
   <i type="int" name="KBLOCK">     1</i>
   <i type="int" name="NPACO">   256</i>
   <i name="APACO">     10.00000000</i>
  </separator>
  <separator name="symmetry" >
   <i type="int" name="ISYM">     2</i>
   <i name="SYMPREC">      0.00001000</i>
  </separator>
  <separator name="dos" >
   <i type="int" name="LORBIT">     0</i>
   <v name="RWIGS">     -1.00000000</v>
   <i type="int" name="NEDOS">   301</i>
   <i name="EMIN">     10.00000000</i>
   <i name="EMAX">    -10.00000000</i>
   <i name="EFERMI">      0.00000000</i>
  </separator>
  <separator name="writing" >
   <i type="int" name="NWRITE">     2</i>
   <i type="logical" name="LWAVE"> T  </i>
   <i type="logical" name="LDOWNSAMPLE"> F  </i>
   <i type="logical" name="LCHARG"> T  </i>
   <i type="logical" name="LPARD"> F  </i>
   <i type="logical" name="LVTOT"> F  </i>
   <i type="logical" name="LVHAR"> F  </i>
   <i type="logical" name="LELF"> F  </i>
   <i type="logical" name="LOPTICS"> F  </i>
   <v name="STM">      0.00000000      0.00000000      0.00000000      0.00000000      0.00000000      0.00000000      0.00000000</v>
  </separator>
  <separator name="performance" >
   <i type="int" name="NPAR">     2</i>
   <i type="int" name="NSIM">     4</i>
   <i type="int" name="NBLK">    -1</i>
   <i type="logical" name="LPLANE"> T  </i>
   <i type="logical" name="LSCALAPACK"> T  </i>
   <i type="logical" name="LSCAAWARE"> F  </i>
   <i type="logical" name="LSCALU"> F  </i>
   <i type="logical" name="LASYNC"> F  </i>
   <i type="logical" name="LORBITALREAL"> F  </i>
  </separator>
  <separator name="miscellaneous" >
   <i type="int" name="IDIOT">     3</i>
   <i type="int" name="PHON_NSTRUCT">    -1</i>
   <i type="logical" name="LMUSIC"> F  </i>
   <v name="POMASS">     63.54600000</v>
   <v name="DARWINR">      0.00000000</v>
   <v name="DARWINV">      1.00000000</v>
   <i type="logical" name="LCORR"> T  </i>
  </separator>
  <i type="logical" name="GGA_COMPAT"> T  </i>
  <i type="logical" name="LBERRY"> F  </i>
  <i type="int" name="ICORELEVEL">     0</i>
  <i type="logical" name="LDAU"> F  </i>
  <i type="int" name="I_CONSTRAINED_M">     0</i>
  <separator name="electronic exchange-correlation" >
   <i type="string" name="GGA">--</i>
   <i type="int" name="VOSKOWN">     0</i>
   <i type="logical" name="LHFCALC"> F  </i>
   <i type="string" name="PRECFOCK"></i>
   <i type="logical" name="LSYMGRAD"> F  </i>
   <i type="logical" name="LHFONE"> F  </i>
   <i type="logical" name="LRHFCALC"> F  </i>
   <i type="logical" name="LTHOMAS"> F  </i>
   <i type="logical" name="LMODELHF"> F  </i>
   <i type="logical" name="LFOCKACE"> F  </i>
   <i name="ENCUT4O">     -1.00000000</i>
   <i type="int" name="EXXOEP">     0</i>
   <i type="int" name="FOURORBIT">     0</i>
   <i name="AEXX">      0.00000000</i>
   <i name="HFALPHA">      0.00000000</i>
   <i name="MCALPHA">      0.00000000</i>
   <i name="ALDAX">      1.00000000</i>
   <i name="AGGAX">      1.00000000</i>
   <i name="ALDAC">      1.00000000</i>
   <i name="AGGAC">      1.00000000</i>
   <i type="int" name="NKREDX">     1</i>
   <i type="int" name="NKREDY">     1</i>
   <i type="int" name="NKREDZ">     1</i>
   <i type="logical" name="SHIFTRED"> F  </i>
   <i type="logical" name="ODDONLY"> F  </i>
   <i type="logical" name="EVENONLY"> F  </i>
   <i type="int" name="LMAXFOCK">     0</i>
   <i type="int" name="NMAXFOCKAE">     0</i>
   <i type="logical" name="LFOCKAEDFT"> F  </i>
   <i name="HFSCREEN">      0.00000000</i>
   <i name="HFSCREENC">      0.00000000</i>
   <i type="int" name="NBANDSGWLOW">     0</i>
  </separator>
  <separator name="vdW DFT" >
   <i type="logical" name="LUSE_VDW"> F  </i>
   <i name="Zab_VDW">     -0.84910000</i>
   <i name="PARAM1">      0.12340000</i>
   <i name="PARAM2">      1.00000000</i>
   <i name="PARAM3">      0.00000000</i>
  </separator>
  <separator name="model GW" >
   <i type="int" name="MODEL_GW">     0</i>
   <i name="MODEL_EPS0">      9.60000000</i>
   <i name="MODEL_ALPHA">      1.00000000</i>
  </separator>
  <separator name="linear response parameters" >
   <i type="logical" name="LEPSILON"> F  </i>
   <i type="logical" name="LRPA"> F  </i>
   <i type="logical" name="LNABLA"> F  </i>
   <i type="logical" name="LVEL"> F  </i>
   <i name="CSHIFT">      0.10000000</i>
   <i name="OMEGAMAX">     -1.00000000</i>
   <i name="DEG_THRESHOLD">      0.00200000</i>
   <i name="RTIME">     -0.10000000</i>
   <i name="WPLASMAI">      0.00000000</i>
   <v name="DFIELD">      0.00000000      0.00000000      0.00000000</v>
   <v name="WPLASMA">      0.00000000      0.00000000      0.00000000      0.00000000      0.00000000      0.00000000      0.00000000      0.00000000      0.00000000</v>
  </separator>
  <separator name="orbital magnetization" >
   <i type="logical" name="NUCIND"> F  </i>
   <v name="MAGPOS">      0.00000000      0.00000000      0.00000000</v>
   <i type="logical" name="LNICSALL"> T  </i>
   <i type="logical" name="ORBITALMAG"> F  </i>
   <i type="logical" name="LMAGBLOCH"> F  </i>
   <i type="logical" name="LCHIMAG"> F  </i>
   <i type="logical" name="LGAUGE"> T  </i>
   <i type="int" name="MAGATOM">     0</i>
   <v name="MAGDIPOL">      0.00000000      0.00000000      0.00000000</v>
   <v name="AVECCONST">      0.00000000      0.00000000      0.00000000</v>
  </separator>
  <separator name="response functions" >
   <i type="logical" name="LFINITE_TEMPERATURE"> F  </i>
   <i type="logical" name="LADDER"> F  </i>
   <i type="logical" name="LRPAFORCE"> F  </i>
   <i type="logical" name="LFXC"> F  </i>
   <i type="logical" name="LHARTREE"> T  </i>
   <i type="int" name="IBSE">     0</i>
   <v type="int" name="KPOINT">    -1     0     0     0</v>
   <i type="logical" name="LTCTC"> F  </i>
   <i type="logical" name="LTCTE"> F  </i>
   <i type="logical" name="LTETE"> F  </i>
   <i type="logical" name="LTRIPLET"> F  </i>
   <i type="logical" name="LFXCEPS"> F  </i>
   <i type="logical" name="LFXHEG"> F  </i>
   <i type="int" name="NATURALO">     2</i>
   <i type="logical" name="LHOLEGF"> F  </i>
   <i type="logical" name="L2ORDER"> F  </i>
   <i type="logical" name="LDMP1"> F  </i>
   <i type="logical" name="LMP2LT"> F  </i>
   <i type="logical" name="LSMP2LT"> F  </i>
   <i type="logical" name="LGWLF"> F  </i>
   <i name="ENCUTGW">     -2.00000000</i>
   <i name="ENCUTGWSOFT">     -2.00000000</i>
   <i name="ENCUTLF">     -1.00000000</i>
   <i type="logical" name="LESF_SPLINES"> F  </i>
   <i type="int" name="LMAXMP2">    -1</i>
   <i name="SCISSOR">      0.00000000</i>
   <i type="int" name="NOMEGA">     0</i>
   <i type="int" name="NOMEGAR">     0</i>
   <i type="int" name="NBANDSGW">    -1</i>
   <i type="int" name="NBANDSO">    -1</i>
   <i type="int" name="NBANDSV">    -1</i>
   <i type="int" name="NELMGW">     1</i>
   <i type="int" name="NELMHF">     1</i>
   <i type="int" name="DIM">     3</i>
   <i type="int" name="IESPILON">     4</i>
   <i type="int" name="ANTIRES">     0</i>
   <i name="OMEGAMAX">    -30.00000000</i>
   <i name="OMEGAMIN">    -30.00000000</i>
   <i name="OMEGATL">   -200.00000000</i>
   <i type="int" name="OMEGAGRID">     0</i>
   <i name="CSHIFT">     -0.10000000</i>
   <i type="logical" name="LSELFENERGY"> F  </i>
   <i type="logical" name="LSPECTRAL"> F  </i>
   <i type="logical" name="LSPECTRALGW"> F  </i>
   <i type="logical" name="LSINGLES"> F  </i>
   <i type="logical" name="LFERMIGW"> F  </i>
   <i type="logical" name="ODDONLYGW"> F  </i>
   <i type="logical" name="EVENONLYGW"> F  </i>
   <i type="int" name="NKREDLFX">     1</i>
   <i type="int" name="NKREDLFY">     1</i>
   <i type="int" name="NKREDLFZ">     1</i>
   <i type="int" name="MAXMEM">  2800</i>
   <i type="int" name="TELESCOPE">     0</i>
   <i type="int" name="NTAUPAR">    -1</i>
   <i type="int" name="NOMEGAPAR">    -1</i>
   <i name="DAMP_NEWTON">      0.80000001</i>
   <i name="LAMBDA">      1.00000000</i>
  </separator>
  <separator name="External order field" >
   <i name="OFIELD_KAPPA">      0.00000000</i>
   <v name="OFIELD_K">      0.00000000      0.00000000      0.00000000</v>
   <i name="OFIELD_Q6_NEAR">      0.00000000</i>
   <i name="OFIELD_Q6_FAR">      0.00000000</i>
   <i name="OFIELD_A">      0.00000000</i>
  </separator>
  <separator name="optional k-points parameters" >
   <i type="int" name="KPOINTS_OPT_MODE">     1</i>
   <i type="logical" name="LKPOINTS_OPT"> F  </i>
  </separator>
 </parameters>
 <atominfo>
  <atoms>       4 </atoms>
  <types>       1 </types>
  <array name="atoms" >
   <dimension dim="1">ion</dimension>
   <field type="string">element</field>
   <field type="int">atomtype</field>
   <set>
    <rc><c>Cu</c><c>   1</c></rc>
    <rc><c>Cu</c><c>   1</c></rc>
    <rc><c>Cu</c><c>   1</c></rc>
    <rc><c>Cu</c><c>   1</c></rc>
   </set>
  </array>
  <array name="atomtypes" >
   <dimension dim="1">type</dimension>
   <field type="int">atomspertype</field>
   <field type="string">element</field>
   <field>mass</field>
   <field>valence</field>
   <field type="string">pseudopotential</field>
   <set>
    <rc><c>   4</c><c>Cu</c><c>     63.54600000</c><c>     11.00000000</c><c> PAW_GGA Cu 05Jan2001                   </c></rc>
   </set>
  </array>
 </atominfo>
 <structure name="initialpos" >
  <crystal>
   <varray name="basis" >
    <v>       4.00000000       0.00000000       0.00000000 </v>
    <v>       0.00000000       4.00000000       0.00000000 </v>
    <v>       0.00000000       0.00000000       4.00000000 </v>
   </varray>
   <i name="volume">     64.00000000 </i>
   <varray name="rec_basis" >
    <v>       0.25000000       0.00000000       0.00000000 </v>
    <v>       0.00000000       0.25000000       0.00000000 </v>
    <v>       0.00000000       0.00000000       0.25000000 </v>
   </varray>
  </crystal>
  <varray name="positions" >
   <v>       0.00000000       0.00000000       0.00000000 </v>
   <v>       0.50000000       0.50000000       0.00000000 </v>
   <v>       0.00000000       0.50000000       0.50000000 </v>
   <v>       0.50000000       0.00000000       0.50000000 </v>
  </varray>
 </structure>
 <calculation>
  <scstep>
   <time name="dav">    0.37    0.38</time>
   <time name="total">    0.38    0.38</time>
   <energy>
    <i name="alphaZ">    318.01299750 </i>
    <i name="ewald">  -3994.27284481 </i>
    <i name="hartreedc">    -61.91822291 </i>
    <i name="XCdc">    101.89476684 </i>
    <i name="pawpsdc">    957.14256819 </i>
    <i name="pawaedc">   -994.20754659 </i>
    <i name="eentropy">     -0.00157034 </i>
    <i name="bandstr">  -3529.78240797 </i>
    <i name="atom">   5572.15315367 </i>
    <i name="e_fr_energy">  -1630.97910642 </i>
    <i name="e_wo_entrp">  -1630.97753607 </i>
    <i name="e_0_energy">  -1630.97832124 </i>
   </energy>
  </scstep>
  <scstep>
   <time name="dav">    0.41    0.41</time>
   <time name="total">    0.41    0.41</time>
   <energy>
    <i name="e_fr_energy">  -1929.47299975 </i>
    <i name="e_wo_entrp">  -1929.47255549 </i>
    <i name="e_0_energy">  -1929.47277762 </i>
   </energy>
  </scstep>
  <scstep>
   <time name="dav">    0.50    0.51</time>
   <time name="total">    0.50    0.51</time>
   <energy>
    <i name="e_fr_energy">  -1966.12531967 </i>
    <i name="e_wo_entrp">  -1966.11626615 </i>
    <i name="e_0_energy">  -1966.12079291 </i>
   </energy>
  </scstep>
  <scstep>
   <time name="dav">    0.47    0.48</time>
   <time name="total">    0.47    0.48</time>
   <energy>
    <i name="e_fr_energy">  -1966.74917592 </i>
    <i name="e_wo_entrp">  -1966.71179406 </i>
    <i name="e_0_energy">  -1966.73048499 </i>
   </energy>
  </scstep>
  <scstep>
   <time name="dav">    0.44    0.44</time>
   <time name="total">    0.46    0.47</time>
   <energy>
    <i name="e_fr_energy">  -1966.83665489 </i>
    <i name="e_wo_entrp">  -1966.79843875 </i>
    <i name="e_0_energy">  -1966.81754682 </i>
   </energy>
  </scstep>
  <scstep>
   <time name="dav">    0.38    0.39</time>
   <time name="total">    0.41    0.42</time>
   <energy>
    <i name="e_fr_energy">   -412.92238268 </i>
    <i name="e_wo_entrp">   -412.92092401 </i>
    <i name="e_0_energy">   -412.92165335 </i>
   </energy>
  </scstep>
  <scstep>
   <time name="dav">    0.34    0.35</time>
   <time name="total">    0.37    0.38</time>
   <energy>
    <i name="e_fr_energy">   -169.34874638 </i>
    <i name="e_wo_entrp">   -169.33909441 </i>
    <i name="e_0_energy">   -169.34392040 </i>
   </energy>
  </scstep>
  <scstep>
   <time name="dav">    0.34    0.35</time>
   <time name="total">    0.37    0.38</time>
   <energy>
    <i name="e_fr_energy">   -198.16447413 </i>
    <i name="e_wo_entrp">   -198.16345979 </i>
    <i name="e_0_energy">   -198.16396696 </i>
   </energy>
  </scstep>
  <scstep>
   <time name="dav">    0.41    0.41</time>
   <time name="total">    0.44    0.44</time>
   <energy>
    <i name="e_fr_energy">    -38.49235807 </i>
    <i name="e_wo_entrp">    -38.49102835 </i>
    <i name="e_0_energy">    -38.49169321 </i>
   </energy>
  </scstep>
  <scstep>
   <time name="dav">    0.39    0.40</time>
   <time name="total">    0.43    0.43</time>
   <energy>
    <i name="e_fr_energy">    -22.60948794 </i>
    <i name="e_wo_entrp">    -22.60818415 </i>
    <i name="e_0_energy">    -22.60883605 </i>
   </energy>
  </scstep>
  <scstep>
   <time name="dav">    0.37    0.37</time>
   <time name="total">    0.40    0.41</time>
   <energy>
    <i name="e_fr_energy">    -13.98100302 </i>
    <i name="e_wo_entrp">    -13.97984729 </i>
    <i name="e_0_energy">    -13.98042516 </i>
   </energy>
  </scstep>
  <scstep>
   <time name="dav">    0.37    0.37</time>
   <time name="total">    0.40    0.40</time>
   <energy>
    <i name="e_fr_energy">    -18.13626589 </i>
    <i name="e_wo_entrp">    -18.13435641 </i>
    <i name="e_0_energy">    -18.13531115 </i>
   </energy>
  </scstep>
  <scstep>
   <time name="dav">    0.37    0.37</time>
   <time name="total">    0.40    0.40</time>
   <energy>
    <i name="e_fr_energy">    -14.48968654 </i>
    <i name="e_wo_entrp">    -14.48703465 </i>
    <i name="e_0_energy">    -14.48836060 </i>
   </energy>
  </scstep>
  <scstep>
   <time name="dav">    0.39    0.39</time>
   <time name="total">    0.42    0.42</time>
   <energy>
    <i name="e_fr_energy">    -13.89919556 </i>
    <i name="e_wo_entrp">    -13.89663180 </i>
    <i name="e_0_energy">    -13.89791368 </i>
   </energy>
  </scstep>
  <scstep>
   <time name="dav">    0.40    0.40</time>
   <time name="total">    0.43    0.43</time>
   <energy>
    <i name="e_fr_energy">    -13.69781173 </i>
    <i name="e_wo_entrp">    -13.69587055 </i>
    <i name="e_0_energy">    -13.69684114 </i>
   </energy>
  </scstep>
  <scstep>
   <time name="dav">    0.35    0.36</time>
   <time name="total">    0.38    0.39</time>
   <energy>
    <i name="e_fr_energy">    -13.68401997 </i>
    <i name="e_wo_entrp">    -13.68236411 </i>
    <i name="e_0_energy">    -13.68319204 </i>
   </energy>
  </scstep>
  <scstep>
   <time name="dav">    0.36    0.36</time>
   <time name="total">    0.39    0.39</time>
   <energy>
    <i name="e_fr_energy">    -13.67875962 </i>
    <i name="e_wo_entrp">    -13.67737251 </i>
    <i name="e_0_energy">    -13.67806606 </i>
   </energy>
  </scstep>
  <scstep>
   <time name="dav">    0.35    0.35</time>
   <time name="total">    0.38    0.38</time>
   <energy>
    <i name="e_fr_energy">    -13.67698156 </i>
    <i name="e_wo_entrp">    -13.67553913 </i>
    <i name="e_0_energy">    -13.67626035 </i>
   </energy>
  </scstep>
  <scstep>
   <time name="dav">    0.26    0.27</time>
   <time name="total">    0.27    0.27</time>
   <energy>
    <i name="alphaZ">    318.01299750 </i>
    <i name="ewald">  -3994.27284481 </i>
    <i name="hartreedc">  -1466.90812652 </i>
    <i name="XCdc">    168.61161775 </i>
    <i name="pawpsdc">   4275.58008445 </i>
    <i name="pawaedc">  -4853.80749683 </i>
    <i name="eentropy">     -0.00143288 </i>
    <i name="bandstr">    -33.04501015 </i>
    <i name="atom">   5572.15315367 </i>
    <i name="e_fr_energy">    -13.67705782 </i>
    <i name="e_wo_entrp">    -13.67562494 </i>
    <i name="e_0_energy">    -13.67634138 </i>
   </energy>
  </scstep>
  <structure>
   <crystal>
    <varray name="basis" >
     <v>       4.00000000       0.00000000       0.00000000 </v>
     <v>       0.00000000       4.00000000       0.00000000 </v>
     <v>       0.00000000       0.00000000       4.00000000 </v>
    </varray>
    <i name="volume">     64.00000000 </i>
    <varray name="rec_basis" >
     <v>       0.25000000       0.00000000       0.00000000 </v>
     <v>       0.00000000       0.25000000       0.00000000 </v>
     <v>       0.00000000       0.00000000       0.25000000 </v>
    </varray>
   </crystal>
   <varray name="positions" >
    <v>       0.00000000       0.00000000       0.00000000 </v>
    <v>       0.50000000       0.50000000       0.00000000 </v>
    <v>       0.00000000       0.50000000       0.50000000 </v>
    <v>       0.50000000       0.00000000       0.50000000 </v>
   </varray>
  </structure>
  <varray name="forces" >
   <v>      -0.00000000      -0.00000000      -0.00000000 </v>
   <v>      -0.00000000       0.00000000      -0.00000000 </v>
   <v>       0.00000000      -0.00000000       0.00000000 </v>
   <v>       0.00000000      -0.00000000      -0.00000000 </v>
  </varray>
  <varray name="stress" >
   <v>    -240.09323184      -0.00000000       0.00000000 </v>
   <v>       0.00000000    -240.09323184       0.00000000 </v>
   <v>       0.00000000       0.00000000    -240.09323184 </v>
  </varray>
  <energy>
   <i name="e_fr_energy">    -13.67705782 </i>
   <i name="e_wo_entrp">    -13.67562494 </i>
   <i name="e_0_energy">    -13.67634138 </i>
  </energy>
  <time name="totalsc">    8.11    8.23</time>
  <eigenvalues>
   <array>
    <dimension dim="1">band</dimension>
    <dimension dim="2">kpoint</dimension>
    <dimension dim="3">spin</dimension>
    <field>eigene</field>
    <field>occ</field>
    <set>
     <set comment="spin 1">
      <set comment="kpoint 1">
       <r>   -5.6667    1.0000 </r>
       <r>   -1.8707    1.0000 </r>
       <r>   -1.8707    1.0000 </r>
       <r>   -1.8707    1.0000 </r>
       <r>   -1.5918    1.0000 </r>
       <r>   -1.5918    1.0000 </r>
       <r>   -1.5918    1.0000 </r>
       <r>   -0.7533    1.0000 </r>
       <r>   -0.7377    1.0000 </r>
       <r>   -0.7377    1.0000 </r>
       <r>   -0.2324    1.0000 </r>
       <r>   -0.2324    1.0000 </r>
       <r>    0.1053    1.0000 </r>
       <r>    0.1053    1.0000 </r>
       <r>    0.1053    1.0000 </r>
       <r>    0.1708    1.0000 </r>
       <r>    0.1708    1.0000 </r>
       <r>    0.1708    1.0000 </r>
       <r>    0.2048    1.0000 </r>
       <r>    0.2048    1.0000 </r>
       <r>    0.2048    1.0000 </r>
       <r>    3.1945    0.0000 </r>
       <r>    3.1945    0.0000 </r>
       <r>    3.1945    0.0000 </r>
       <r>    6.9712    0.0000 </r>
       <r>    6.9712    0.0000 </r>
      </set>
      <set comment="kpoint 2">
       <r>   -5.5311    1.0000 </r>
       <r>   -1.8797    1.0000 </r>
       <r>   -1.8176    1.0000 </r>
       <r>   -1.8176    1.0000 </r>
       <r>   -1.5638    1.0000 </r>
       <r>   -1.5611    1.0000 </r>
       <r>   -1.5611    1.0000 </r>
       <r>   -0.7806    1.0000 </r>
       <r>   -0.7146    1.0000 </r>
       <r>   -0.7132    1.0000 </r>
       <r>   -0.2586    1.0000 </r>
       <r>   -0.2202    1.0000 </r>
       <r>    0.0256    1.0000 </r>
       <r>    0.0256    1.0000 </r>
       <r>    0.0762    1.0000 </r>
       <r>    0.0762    1.0000 </r>
       <r>    0.0863    1.0000 </r>
       <r>    0.1246    1.0000 </r>
       <r>    0.1714    1.0000 </r>
       <r>    0.2027    1.0000 </r>
       <r>    0.2027    1.0000 </r>
       <r>    2.3009    0.0000 </r>
       <r>    3.4577    0.0000 </r>
       <r>    3.4577    0.0000 </r>
       <r>    7.0431    0.0000 </r>
       <r>    7.0431    0.0000 </r>
      </set>
      <set comment="kpoint 3">
       <r>   -5.2619    1.0000 </r>
       <r>   -1.9265    1.0000 </r>
       <r>   -1.7193    1.0000 </r>
       <r>   -1.7193    1.0000 </r>
       <r>   -1.5096    1.0000 </r>
       <r>   -1.4992    1.0000 </r>
       <r>   -1.4992    1.0000 </r>
       <r>   -0.8368    1.0000 </r>
       <r>   -0.6657    1.0000 </r>
       <r>   -0.6648    1.0000 </r>
       <r>   -0.3075    1.0000 </r>
       <r>   -0.2002    1.0000 </r>
       <r>   -0.2002    1.0000 </r>
       <r>   -0.1965    1.0000 </r>
       <r>    0.0092    1.0000 </r>
       <r>    0.0092    1.0000 </r>
       <r>    0.0327    1.0000 </r>
       <r>    0.0397    1.0000 </r>
       <r>    0.1193    1.0000 </r>
       <r>    0.2022    1.0000 </r>
       <r>    0.2022    1.0000 </r>
       <r>    1.2611    1.0000 </r>
       <r>    3.9249    0.0000 </r>
       <r>    3.9249    0.0000 </r>
       <r>    7.1906    0.0000 </r>
       <r>    7.1906    0.0000 </r>
      </set>
      <set comment="kpoint 4">
       <r>   -4.8643    1.0000 </r>
       <r>   -2.0876    1.0000 </r>
       <r>   -1.5927    1.0000 </r>
       <r>   -1.5927    1.0000 </r>
       <r>   -1.4327    1.0000 </r>
       <r>   -1.4058    1.0000 </r>
       <r>   -1.4058    1.0000 </r>
       <r>   -0.9163    1.0000 </r>
       <r>   -0.5960    1.0000 </r>
       <r>   -0.5938    1.0000 </r>
       <r>   -0.4553    1.0000 </r>
       <r>   -0.4553    1.0000 </r>
       <r>   -0.3693    1.0000 </r>
       <r>   -0.1628    1.0000 </r>
       <r>   -0.1178    1.0000 </r>
       <r>   -0.0790    1.0000 </r>
       <r>   -0.0790    1.0000 </r>
       <r>   -0.0460    1.0000 </r>
       <r>    0.0697    1.0000 </r>
       <r>    0.2022    1.0000 </r>
       <r>    0.2022    1.0000 </r>
       <r>    0.4168    1.0000 </r>
       <r>    4.5359    0.0000 </r>
       <r>    4.5359    0.0000 </r>
       <r>    7.4183    0.0000 </r>
       <r>    7.4183    0.0000 </r>
      </set>
      <set comment="kpoint 5">
       <r>   -4.3488    1.0000 </r>
       <r>   -2.4752    1.0000 </r>
       <r>   -1.4655    1.0000 </r>
       <r>   -1.4655    1.0000 </r>
       <r>   -1.3379    1.0000 </r>
       <r>   -1.2805    1.0000 </r>
       <r>   -1.2805    1.0000 </r>
       <r>   -1.0134    1.0000 </r>
       <r>   -0.7040    1.0000 </r>
       <r>   -0.7040    1.0000 </r>
       <r>   -0.5280    1.0000 </r>
       <r>   -0.5026    1.0000 </r>
       <r>   -0.4111    1.0000 </r>
       <r>   -0.3562    1.0000 </r>
       <r>   -0.1713    1.0000 </r>
       <r>   -0.1713    1.0000 </r>
       <r>   -0.1570    1.0000 </r>
       <r>   -0.1213    1.0000 </r>
       <r>   -0.0205    1.0000 </r>
       <r>    0.0229    1.0000 </r>
       <r>    0.2024    1.0000 </r>
       <r>    0.2024    1.0000 </r>
       <r>    5.2524    0.0000 </r>
       <r>    5.2524    0.0000 </r>
       <r>    7.6549    0.0000 </r>
       <r>    7.6549    0.0000 </r>
      </set>
      <set comment="kpoint 6">
       <r>   -3.7364    1.0000 </r>
       <r>   -3.0756    1.0000 </r>
       <r>   -1.3804    1.0000 </r>
       <r>   -1.3804    1.0000 </r>
       <r>   -1.2317    1.0000 </r>
       <r>   -1.1229    1.0000 </r>
       <r>   -1.1229    1.0000 </r>
       <r>   -1.1210    1.0000 </r>
       <r>   -0.9282    1.0000 </r>
       <r>   -0.9282    1.0000 </r>
       <r>   -0.5296    1.0000 </r>
       <r>   -0.5097    1.0000 </r>
       <r>   -0.3955    1.0000 </r>
       <r>   -0.3436    1.0000 </r>
       <r>   -0.2777    1.0000 </r>
       <r>   -0.2349    1.0000 </r>
       <r>   -0.2349    1.0000 </r>
       <r>   -0.2108    1.0000 </r>
       <r>   -0.0748    1.0000 </r>
       <r>   -0.0259    1.0000 </r>
       <r>    0.2025    1.0000 </r>
       <r>    0.2025    1.0000 </r>
       <r>    6.0520    0.0000 </r>
       <r>    6.0520    0.0000 </r>
       <r>    6.9195    0.0000 </r>
       <r>    6.9195    0.0000 </r>
      </set>
      <set comment="kpoint 7">
       <r>   -5.3963    1.0000 </r>
       <r>   -1.8235    1.0000 </r>
       <r>   -1.8235    1.0000 </r>
       <r>   -1.7683    1.0000 </r>
       <r>   -1.5342    1.0000 </r>
       <r>   -1.5342    1.0000 </r>
       <r>   -1.5317    1.0000 </r>
       <r>   -0.7959    1.0000 </r>
       <r>   -0.7019    1.0000 </r>
       <r>   -0.6942    1.0000 </r>
       <r>   -0.2644    1.0000 </r>
       <r>   -0.2232    1.0000 </r>
       <r>   -0.0684    1.0000 </r>
       <r>   -0.0450    1.0000 </r>
       <r>   -0.0450    1.0000 </r>
       <r>    0.0365    1.0000 </r>
       <r>    0.0695    1.0000 </r>
       <r>    0.0695    1.0000 </r>
       <r>    0.1709    1.0000 </r>
       <r>    0.1709    1.0000 </r>
       <r>    0.1816    1.0000 </r>
       <r>    2.5495    0.0000 </r>
       <r>    2.5495    0.0000 </r>
       <r>    3.7019    0.0000 </r>
       <r>    7.1163    0.0000 </r>
       <r>    8.2529    0.0000 </r>
      </set>
      <set comment="kpoint 8">
       <r>   -5.1291    1.0000 </r>
       <r>   -1.8634    1.0000 </r>
       <r>   -1.7193    1.0000 </r>
       <r>   -1.6772    1.0000 </r>
       <r>   -1.4821    1.0000 </r>
       <r>   -1.4745    1.0000 </r>
       <r>   -1.4727    1.0000 </r>
       <r>   -0.8428    1.0000 </r>
       <r>   -0.6602    1.0000 </r>
       <r>   -0.6568    1.0000 </r>
       <r>   -0.3023    1.0000 </r>
       <r>   -0.2789    1.0000 </r>
       <r>   -0.2589    1.0000 </r>
       <r>   -0.1991    1.0000 </r>
       <r>   -0.1652    1.0000 </r>
       <r>   -0.0230    1.0000 </r>
       <r>    0.0101    1.0000 </r>
       <r>    0.0229    1.0000 </r>
       <r>    0.1224    1.0000 </r>
       <r>    0.1666    1.0000 </r>
       <r>    0.1686    1.0000 </r>
       <r>    1.5208    0.8460 </r>
       <r>    2.9736    0.0000 </r>
       <r>    4.1442    0.0000 </r>
       <r>    7.2625    0.0000 </r>
       <r>    8.4371    0.0000 </r>
      </set>
      <set comment="kpoint 9">
       <r>   -4.7348    1.0000 </r>
       <r>   -2.0129    1.0000 </r>
       <r>   -1.5842    1.0000 </r>
       <r>   -1.5587    1.0000 </r>
       <r>   -1.4082    1.0000 </r>
       <r>   -1.3861    1.0000 </r>
       <r>   -1.3846    1.0000 </r>
       <r>   -0.9161    1.0000 </r>
       <r>   -0.6097    1.0000 </r>
       <r>   -0.5923    1.0000 </r>
       <r>   -0.5315    1.0000 </r>
       <r>   -0.4880    1.0000 </r>
       <r>   -0.3492    1.0000 </r>
       <r>   -0.3410    1.0000 </r>
       <r>   -0.1574    1.0000 </r>
       <r>   -0.1029    1.0000 </r>
       <r>   -0.0739    1.0000 </r>
       <r>   -0.0658    1.0000 </r>
       <r>    0.0680    1.0000 </r>
       <r>    0.1629    1.0000 </r>
       <r>    0.1635    1.0000 </r>
       <r>    0.6989    1.0000 </r>
       <r>    3.5130    0.0000 </r>
       <r>    4.7330    0.0000 </r>
       <r>    7.3577    0.0000 </r>
       <r>    7.7311    0.0000 </r>
      </set>
      <set comment="kpoint 10">
       <r>   -4.2242    1.0000 </r>
       <r>   -2.3849    1.0000 </r>
       <r>   -1.4457    1.0000 </r>
       <r>   -1.4324    1.0000 </r>
       <r>   -1.3173    1.0000 </r>
       <r>   -1.2806    1.0000 </r>
       <r>   -1.2652    1.0000 </r>
       <r>   -1.0076    1.0000 </r>
       <r>   -0.7700    1.0000 </r>
       <r>   -0.7169    1.0000 </r>
       <r>   -0.5828    1.0000 </r>
       <r>   -0.5247    1.0000 </r>
       <r>   -0.5056    1.0000 </r>
       <r>   -0.3577    1.0000 </r>
       <r>   -0.1868    1.0000 </r>
       <r>   -0.1769    1.0000 </r>
       <r>   -0.1654    1.0000 </r>
       <r>   -0.1045    1.0000 </r>
       <r>   -0.0093    1.0000 </r>
       <r>    0.1607    1.0000 </r>
       <r>    0.1618    1.0000 </r>
       <r>    0.2260    1.0000 </r>
       <r>    4.1411    0.0000 </r>
       <r>    5.4322    0.0000 </r>
       <r>    6.5291    0.0000 </r>
       <r>    7.9155    0.0000 </r>
      </set>
      <set comment="kpoint 11">
       <r>   -3.6195    1.0000 </r>
       <r>   -2.9701    1.0000 </r>
       <r>   -1.3468    1.0000 </r>
       <r>   -1.3403    1.0000 </r>
       <r>   -1.2156    1.0000 </r>
       <r>   -1.1594    1.0000 </r>
       <r>   -1.1233    1.0000 </r>
       <r>   -1.1099    1.0000 </r>
       <r>   -0.9726    1.0000 </r>
       <r>   -0.9237    1.0000 </r>
       <r>   -0.6085    1.0000 </r>
       <r>   -0.6022    1.0000 </r>
       <r>   -0.4050    1.0000 </r>
       <r>   -0.2936    1.0000 </r>
       <r>   -0.2807    1.0000 </r>
       <r>   -0.2415    1.0000 </r>
       <r>   -0.2332    1.0000 </r>
       <r>   -0.1445    1.0000 </r>
       <r>   -0.0416    1.0000 </r>
       <r>    0.0405    1.0000 </r>
       <r>    0.1601    1.0000 </r>
       <r>    0.1606    1.0000 </r>
       <r>    4.8509    0.0000 </r>
       <r>    5.6458    0.0000 </r>
       <r>    6.2199    0.0000 </r>
       <r>    7.0821    0.0000 </r>
      </set>
      <set comment="kpoint 12">
       <r>   -4.8661    1.0000 </r>
       <r>   -1.7461    1.0000 </r>
       <r>   -1.7461    1.0000 </r>
       <r>   -1.6010    1.0000 </r>
       <r>   -1.4267    1.0000 </r>
       <r>   -1.4267    1.0000 </r>
       <r>   -1.4189    1.0000 </r>
       <r>   -0.8694    1.0000 </r>
       <r>   -0.6410    1.0000 </r>
       <r>   -0.6343    1.0000 </r>
       <r>   -0.4130    1.0000 </r>
       <r>   -0.4130    1.0000 </r>
       <r>   -0.3843    1.0000 </r>
       <r>   -0.3168    1.0000 </r>
       <r>   -0.1766    1.0000 </r>
       <r>   -0.0786    1.0000 </r>
       <r>   -0.0171    1.0000 </r>
       <r>   -0.0171    1.0000 </r>
       <r>    0.1065    1.0000 </r>
       <r>    0.1065    1.0000 </r>
       <r>    0.1313    1.0000 </r>
       <r>    1.9256    0.0000 </r>
       <r>    1.9256    0.0000 </r>
       <r>    4.5512    0.0000 </r>
       <r>    7.2537    0.0000 </r>
       <r>    7.6211    0.0000 </r>
      </set>
      <set comment="kpoint 13">
       <r>   -4.4788    1.0000 </r>
       <r>   -1.8736    1.0000 </r>
       <r>   -1.5928    1.0000 </r>
       <r>   -1.5020    1.0000 </r>
       <r>   -1.3589    1.0000 </r>
       <r>   -1.3433    1.0000 </r>
       <r>   -1.3420    1.0000 </r>
       <r>   -0.9240    1.0000 </r>
       <r>   -0.6563    1.0000 </r>
       <r>   -0.6244    1.0000 </r>
       <r>   -0.5794    1.0000 </r>
       <r>   -0.5744    1.0000 </r>
       <r>   -0.5579    1.0000 </r>
       <r>   -0.3467    1.0000 </r>
       <r>   -0.1485    1.0000 </r>
       <r>   -0.1204    1.0000 </r>
       <r>   -0.0891    1.0000 </r>
       <r>   -0.0874    1.0000 </r>
       <r>    0.0372    1.0000 </r>
       <r>    0.0948    1.0000 </r>
       <r>    0.1063    1.0000 </r>
       <r>    1.0699    1.0000 </r>
       <r>    2.4197    0.0000 </r>
       <r>    5.1051    0.0000 </r>
       <r>    6.2759    0.0000 </r>
       <r>    7.7472    0.0000 </r>
      </set>
      <set comment="kpoint 14">
       <r>   -3.9792    1.0000 </r>
       <r>   -2.2151    1.0000 </r>
       <r>   -1.4315    1.0000 </r>
       <r>   -1.3872    1.0000 </r>
       <r>   -1.2760    1.0000 </r>
       <r>   -1.2645    1.0000 </r>
       <r>   -1.2344    1.0000 </r>
       <r>   -1.0004    1.0000 </r>
       <r>   -0.8737    1.0000 </r>
       <r>   -0.7457    1.0000 </r>
       <r>   -0.6925    1.0000 </r>
       <r>   -0.6314    1.0000 </r>
       <r>   -0.5018    1.0000 </r>
       <r>   -0.3435    1.0000 </r>
       <r>   -0.2197    1.0000 </r>
       <r>   -0.1933    1.0000 </r>
       <r>   -0.1727    1.0000 </r>
       <r>   -0.0485    1.0000 </r>
       <r>   -0.0416    1.0000 </r>
       <r>    0.0886    1.0000 </r>
       <r>    0.0931    1.0000 </r>
       <r>    0.5125    1.0000 </r>
       <r>    2.9933    0.0000 </r>
       <r>    5.2834    0.0000 </r>
       <r>    5.7821    0.0000 </r>
       <r>    8.1138    0.0000 </r>
      </set>
      <set comment="kpoint 15">
       <r>   -3.3914    1.0000 </r>
       <r>   -2.7674    1.0000 </r>
       <r>   -1.3005    1.0000 </r>
       <r>   -1.2674    1.0000 </r>
       <r>   -1.2220    1.0000 </r>
       <r>   -1.1841    1.0000 </r>
       <r>   -1.1375    1.0000 </r>
       <r>   -1.0897    1.0000 </r>
       <r>   -1.0256    1.0000 </r>
       <r>   -0.9210    1.0000 </r>
       <r>   -0.7132    1.0000 </r>
       <r>   -0.6737    1.0000 </r>
       <r>   -0.4096    1.0000 </r>
       <r>   -0.3051    1.0000 </r>
       <r>   -0.2738    1.0000 </r>
       <r>   -0.2613    1.0000 </r>
       <r>   -0.2427    1.0000 </r>
       <r>   -0.1606    1.0000 </r>
       <r>    0.0613    1.0000 </r>
       <r>    0.0862    1.0000 </r>
       <r>    0.0872    1.0000 </r>
       <r>    0.2173    1.0000 </r>
       <r>    3.6537    0.0000 </r>
       <r>    4.4140    0.0000 </r>
       <r>    6.5452    0.0000 </r>
       <r>    7.3949    0.0000 </r>
      </set>
      <set comment="kpoint 16">
       <r>   -4.1035    1.0000 </r>
       <r>   -1.6915    1.0000 </r>
       <r>   -1.6915    1.0000 </r>
       <r>   -1.4376    1.0000 </r>
       <r>   -1.2846    1.0000 </r>
       <r>   -1.2846    1.0000 </r>
       <r>   -1.2732    1.0000 </r>
       <r>   -0.9506    1.0000 </r>
       <r>   -0.7811    1.0000 </r>
       <r>   -0.7811    1.0000 </r>
       <r>   -0.6646    1.0000 </r>
       <r>   -0.6372    1.0000 </r>
       <r>   -0.5448    1.0000 </r>
       <r>   -0.3677    1.0000 </r>
       <r>   -0.2089    1.0000 </r>
       <r>   -0.1385    1.0000 </r>
       <r>   -0.1385    1.0000 </r>
       <r>   -0.0406    1.0000 </r>
       <r>    0.0089    1.0000 </r>
       <r>    0.0089    1.0000 </r>
       <r>    0.0554    1.0000 </r>
       <r>    1.5020    0.9395 </r>
       <r>    1.5020    0.9395 </r>
       <r>    5.1514    0.0000 </r>
       <r>    5.6339    0.0000 </r>
       <r>    8.0267    0.0000 </r>
      </set>
      <set comment="kpoint 17">
       <r>   -3.6231    1.0000 </r>
       <r>   -1.9900    1.0000 </r>
       <r>   -1.5017    1.0000 </r>
       <r>   -1.3709    1.0000 </r>
       <r>   -1.2143    1.0000 </r>
       <r>   -1.2032    1.0000 </r>
       <r>   -1.1873    1.0000 </r>
       <r>   -0.9994    1.0000 </r>
       <r>   -0.9520    1.0000 </r>
       <r>   -0.8321    1.0000 </r>
       <r>   -0.7939    1.0000 </r>
       <r>   -0.6658    1.0000 </r>
       <r>   -0.4886    1.0000 </r>
       <r>   -0.3659    1.0000 </r>
       <r>   -0.2696    1.0000 </r>
       <r>   -0.2261    1.0000 </r>
       <r>   -0.2113    1.0000 </r>
       <r>   -0.0885    1.0000 </r>
       <r>   -0.0049    1.0000 </r>
       <r>    0.0201    1.0000 </r>
       <r>    0.0718    1.0000 </r>
       <r>    0.8478    1.0000 </r>
       <r>    2.0072    0.0000 </r>
       <r>    4.1703    0.0000 </r>
       <r>    6.2696    0.0000 </r>
       <r>    8.4298    0.0000 </r>
      </set>
      <set comment="kpoint 18">
       <r>   -3.0657    1.0000 </r>
       <r>   -2.4873    1.0000 </r>
       <r>   -1.3540    1.0000 </r>
       <r>   -1.3158    1.0000 </r>
       <r>   -1.1629    1.0000 </r>
       <r>   -1.1389    1.0000 </r>
       <r>   -1.1143    1.0000 </r>
       <r>   -1.0648    1.0000 </r>
       <r>   -1.0364    1.0000 </r>
       <r>   -0.9259    1.0000 </r>
       <r>   -0.7971    1.0000 </r>
       <r>   -0.7266    1.0000 </r>
       <r>   -0.4170    1.0000 </r>
       <r>   -0.3268    1.0000 </r>
       <r>   -0.3029    1.0000 </r>
       <r>   -0.3017    1.0000 </r>
       <r>   -0.2781    1.0000 </r>
       <r>   -0.1985    1.0000 </r>
       <r>   -0.0073    1.0000 </r>
       <r>    0.0003    1.0000 </r>
       <r>    0.2226    1.0000 </r>
       <r>    0.4520    1.0000 </r>
       <r>    2.6068    0.0000 </r>
       <r>    3.3227    0.0000 </r>
       <r>    7.0120    0.0000 </r>
       <r>    7.8469    0.0000 </r>
      </set>
      <set comment="kpoint 19">
       <r>   -3.1746    1.0000 </r>
       <r>   -1.7509    1.0000 </r>
       <r>   -1.7509    1.0000 </r>
       <r>   -1.3857    1.0000 </r>
       <r>   -1.1336    1.0000 </r>
       <r>   -1.1336    1.0000 </r>
       <r>   -1.1205    1.0000 </r>
       <r>   -1.0124    1.0000 </r>
       <r>   -0.9363    1.0000 </r>
       <r>   -0.9363    1.0000 </r>
       <r>   -0.8610    1.0000 </r>
       <r>   -0.7016    1.0000 </r>
       <r>   -0.4709    1.0000 </r>
       <r>   -0.3680    1.0000 </r>
       <r>   -0.3256    1.0000 </r>
       <r>   -0.2835    1.0000 </r>
       <r>   -0.2835    1.0000 </r>
       <r>   -0.1088    1.0000 </r>
       <r>   -0.1088    1.0000 </r>
       <r>   -0.0418    1.0000 </r>
       <r>    0.2250    1.0000 </r>
       <r>    1.2527    1.0000 </r>
       <r>    1.2527    1.0000 </r>
       <r>    3.2066    0.0000 </r>
       <r>    6.8825    0.0000 </r>
       <r>    8.8690    0.0000 </r>
      </set>
      <set comment="kpoint 20">
       <r>   -2.6686    1.0000 </r>
       <r>   -2.1658    1.0000 </r>
       <r>   -1.5532    1.0000 </r>
       <r>   -1.4358    1.0000 </r>
       <r>   -1.0840    1.0000 </r>
       <r>   -1.0554    1.0000 </r>
       <r>   -1.0418    1.0000 </r>
       <r>   -1.0404    1.0000 </r>
       <r>   -1.0031    1.0000 </r>
       <r>   -0.9432    1.0000 </r>
       <r>   -0.8559    1.0000 </r>
       <r>   -0.7658    1.0000 </r>
       <r>   -0.4386    1.0000 </r>
       <r>   -0.3699    1.0000 </r>
       <r>   -0.3592    1.0000 </r>
       <r>   -0.3410    1.0000 </r>
       <r>   -0.3105    1.0000 </r>
       <r>   -0.2159    1.0000 </r>
       <r>   -0.1066    1.0000 </r>
       <r>   -0.0844    1.0000 </r>
       <r>    0.4324    1.0000 </r>
       <r>    0.7469    1.0000 </r>
       <r>    1.7602    0.0000 </r>
       <r>    2.4044    0.0000 </r>
       <r>    7.6042    0.0000 </r>
       <r>    8.4260    0.0000 </r>
      </set>
      <set comment="kpoint 21">
       <r>   -2.2448    1.0000 </r>
       <r>   -1.8560    1.0000 </r>
       <r>   -1.8560    1.0000 </r>
       <r>   -1.6086    1.0000 </r>
       <r>   -1.0276    1.0000 </r>
       <r>   -1.0262    1.0000 </r>
       <r>   -1.0262    1.0000 </r>
       <r>   -0.9778    1.0000 </r>
       <r>   -0.9614    1.0000 </r>
       <r>   -0.9013    1.0000 </r>
       <r>   -0.9013    1.0000 </r>
       <r>   -0.8162    1.0000 </r>
       <r>   -0.4502    1.0000 </r>
       <r>   -0.4114    1.0000 </r>
       <r>   -0.4114    1.0000 </r>
       <r>   -0.4084    1.0000 </r>
       <r>   -0.2723    1.0000 </r>
       <r>   -0.1997    1.0000 </r>
       <r>   -0.1997    1.0000 </r>
       <r>   -0.1543    1.0000 </r>
       <r>    0.7178    1.0000 </r>
       <r>    1.1383    1.0000 </r>
       <r>    1.1383    1.0000 </r>
       <r>    1.6780    0.0003 </r>
       <r>    8.3099    0.0000 </r>
       <r>    9.1227    0.0000 </r>
      </set>
      <set comment="kpoint 22">
       <r>   -5.2626    1.0000 </r>
       <r>   -1.7722    1.0000 </r>
       <r>   -1.7722    1.0000 </r>
       <r>   -1.7722    1.0000 </r>
       <r>   -1.5054    1.0000 </r>
       <r>   -1.5054    1.0000 </r>
       <r>   -1.5054    1.0000 </r>
       <r>   -0.8077    1.0000 </r>
       <r>   -0.6860    1.0000 </r>
       <r>   -0.6860    1.0000 </r>
       <r>   -0.2456    1.0000 </r>
       <r>   -0.2456    1.0000 </r>
       <r>   -0.1327    1.0000 </r>
       <r>   -0.1327    1.0000 </r>
       <r>   -0.1327    1.0000 </r>
       <r>   -0.0054    1.0000 </r>
       <r>   -0.0054    1.0000 </r>
       <r>   -0.0054    1.0000 </r>
       <r>    0.1758    1.0000 </r>
       <r>    0.1758    1.0000 </r>
       <r>    0.1758    1.0000 </r>
       <r>    2.7726    0.0000 </r>
       <r>    2.7726    0.0000 </r>
       <r>    2.7726    0.0000 </r>
       <r>    8.3407    0.0000 </r>
       <r>    8.3407    0.0000 </r>
      </set>
      <set comment="kpoint 23">
       <r>   -4.9977    1.0000 </r>
       <r>   -1.8076    1.0000 </r>
       <r>   -1.6779    1.0000 </r>
       <r>   -1.6779    1.0000 </r>
       <r>   -1.4543    1.0000 </r>
       <r>   -1.4475    1.0000 </r>
       <r>   -1.4475    1.0000 </r>
       <r>   -0.8465    1.0000 </r>
       <r>   -0.6561    1.0000 </r>
       <r>   -0.6536    1.0000 </r>
       <r>   -0.3290    1.0000 </r>
       <r>   -0.3290    1.0000 </r>
       <r>   -0.2837    1.0000 </r>
       <r>   -0.2612    1.0000 </r>
       <r>   -0.2098    1.0000 </r>
       <r>   -0.0771    1.0000 </r>
       <r>   -0.0581    1.0000 </r>
       <r>   -0.0581    1.0000 </r>
       <r>    0.1576    1.0000 </r>
       <r>    0.1644    1.0000 </r>
       <r>    0.1644    1.0000 </r>
       <r>    1.7342    0.0000 </r>
       <r>    3.1669    0.0000 </r>
       <r>    3.1669    0.0000 </r>
       <r>    8.4369    0.0000 </r>
       <r>    8.4369    0.0000 </r>
      </set>
      <set comment="kpoint 24">
       <r>   -4.6072    1.0000 </r>
       <r>   -1.9480    1.0000 </r>
       <r>   -1.5557    1.0000 </r>
       <r>   -1.5557    1.0000 </r>
       <r>   -1.3817    1.0000 </r>
       <r>   -1.3628    1.0000 </r>
       <r>   -1.3628    1.0000 </r>
       <r>   -0.9124    1.0000 </r>
       <r>   -0.6156    1.0000 </r>
       <r>   -0.6045    1.0000 </r>
       <r>   -0.5537    1.0000 </r>
       <r>   -0.5537    1.0000 </r>
       <r>   -0.4410    1.0000 </r>
       <r>   -0.3165    1.0000 </r>
       <r>   -0.1671    1.0000 </r>
       <r>   -0.1605    1.0000 </r>
       <r>   -0.1238    1.0000 </r>
       <r>   -0.1238    1.0000 </r>
       <r>    0.1245    1.0000 </r>
       <r>    0.1502    1.0000 </r>
       <r>    0.1502    1.0000 </r>
       <r>    0.8879    1.0000 </r>
       <r>    3.6829    0.0000 </r>
       <r>    3.6829    0.0000 </r>
       <r>    7.6578    0.0000 </r>
       <r>    7.6578    0.0000 </r>
      </set>
      <set comment="kpoint 25">
       <r>   -4.1025    1.0000 </r>
       <r>   -2.3045    1.0000 </r>
       <r>   -1.4236    1.0000 </r>
       <r>   -1.4236    1.0000 </r>
       <r>   -1.2931    1.0000 </r>
       <r>   -1.2661    1.0000 </r>
       <r>   -1.2661    1.0000 </r>
       <r>   -0.9975    1.0000 </r>
       <r>   -0.7650    1.0000 </r>
       <r>   -0.7650    1.0000 </r>
       <r>   -0.6045    1.0000 </r>
       <r>   -0.6002    1.0000 </r>
       <r>   -0.5388    1.0000 </r>
       <r>   -0.2950    1.0000 </r>
       <r>   -0.2660    1.0000 </r>
       <r>   -0.1995    1.0000 </r>
       <r>   -0.1995    1.0000 </r>
       <r>   -0.1023    1.0000 </r>
       <r>    0.0780    1.0000 </r>
       <r>    0.1402    1.0000 </r>
       <r>    0.1402    1.0000 </r>
       <r>    0.3352    1.0000 </r>
       <r>    4.2938    0.0000 </r>
       <r>    4.2938    0.0000 </r>
       <r>    6.6822    0.0000 </r>
       <r>    6.6822    0.0000 </r>
      </set>
      <set comment="kpoint 26">
       <r>   -3.5070    1.0000 </r>
       <r>   -2.8715    1.0000 </r>
       <r>   -1.3106    1.0000 </r>
       <r>   -1.3106    1.0000 </r>
       <r>   -1.1949    1.0000 </r>
       <r>   -1.1945    1.0000 </r>
       <r>   -1.1945    1.0000 </r>
       <r>   -1.0940    1.0000 </r>
       <r>   -0.9227    1.0000 </r>
       <r>   -0.9227    1.0000 </r>
       <r>   -0.6564    1.0000 </r>
       <r>   -0.6357    1.0000 </r>
       <r>   -0.4578    1.0000 </r>
       <r>   -0.3653    1.0000 </r>
       <r>   -0.2551    1.0000 </r>
       <r>   -0.2551    1.0000 </r>
       <r>   -0.1836    1.0000 </r>
       <r>   -0.0398    1.0000 </r>
       <r>    0.0133    1.0000 </r>
       <r>    0.0220    1.0000 </r>
       <r>    0.1358    1.0000 </r>
       <r>    0.1358    1.0000 </r>
       <r>    4.9865    0.0000 </r>
       <r>    4.9865    0.0000 </r>
       <r>    5.8033    0.0000 </r>
       <r>    5.8033    0.0000 </r>
      </set>
      <set comment="kpoint 27">
       <r>   -4.7376    1.0000 </r>
       <r>   -1.7060    1.0000 </r>
       <r>   -1.7060    1.0000 </r>
       <r>   -1.6045    1.0000 </r>
       <r>   -1.3977    1.0000 </r>
       <r>   -1.3977    1.0000 </r>
       <r>   -1.3921    1.0000 </r>
       <r>   -0.8665    1.0000 </r>
       <r>   -0.6427    1.0000 </r>
       <r>   -0.6394    1.0000 </r>
       <r>   -0.4559    1.0000 </r>
       <r>   -0.4559    1.0000 </r>
       <r>   -0.4444    1.0000 </r>
       <r>   -0.2808    1.0000 </r>
       <r>   -0.1940    1.0000 </r>
       <r>   -0.1339    1.0000 </r>
       <r>   -0.1263    1.0000 </r>
       <r>   -0.1263    1.0000 </r>
       <r>    0.1484    1.0000 </r>
       <r>    0.1507    1.0000 </r>
       <r>    0.1507    1.0000 </r>
       <r>    2.0980    0.0000 </r>
       <r>    2.0980    0.0000 </r>
       <r>    3.5216    0.0000 </r>
       <r>    7.5241    0.0000 </r>
       <r>    8.8354    0.0000 </r>
      </set>
      <set comment="kpoint 28">
       <r>   -4.3553    1.0000 </r>
       <r>   -1.8311    1.0000 </r>
       <r>   -1.5775    1.0000 </r>
       <r>   -1.5125    1.0000 </r>
       <r>   -1.3269    1.0000 </r>
       <r>   -1.3139    1.0000 </r>
       <r>   -1.3132    1.0000 </r>
       <r>   -0.9125    1.0000 </r>
       <r>   -0.6627    1.0000 </r>
       <r>   -0.6288    1.0000 </r>
       <r>   -0.6078    1.0000 </r>
       <r>   -0.6052    1.0000 </r>
       <r>   -0.6039    1.0000 </r>
       <r>   -0.2942    1.0000 </r>
       <r>   -0.2164    1.0000 </r>
       <r>   -0.1987    1.0000 </r>
       <r>   -0.1759    1.0000 </r>
       <r>   -0.1351    1.0000 </r>
       <r>    0.1207    1.0000 </r>
       <r>    0.1247    1.0000 </r>
       <r>    0.1273    1.0000 </r>
       <r>    1.2052    1.0000 </r>
       <r>    2.5657    0.0000 </r>
       <r>    4.0006    0.0000 </r>
       <r>    6.4285    0.0000 </r>
       <r>    7.9722    0.0000 </r>
      </set>
      <set comment="kpoint 29">
       <r>   -3.8639    1.0000 </r>
       <r>   -2.1570    1.0000 </r>
       <r>   -1.4441    1.0000 </r>
       <r>   -1.4108    1.0000 </r>
       <r>   -1.2422    1.0000 </r>
       <r>   -1.2382    1.0000 </r>
       <r>   -1.2223    1.0000 </r>
       <r>   -0.9803    1.0000 </r>
       <r>   -0.8366    1.0000 </r>
       <r>   -0.7614    1.0000 </r>
       <r>   -0.7133    1.0000 </r>
       <r>   -0.6391    1.0000 </r>
       <r>   -0.5558    1.0000 </r>
       <r>   -0.3142    1.0000 </r>
       <r>   -0.2598    1.0000 </r>
       <r>   -0.2595    1.0000 </r>
       <r>   -0.2370    1.0000 </r>
       <r>   -0.0575    1.0000 </r>
       <r>    0.0685    1.0000 </r>
       <r>    0.1039    1.0000 </r>
       <r>    0.1053    1.0000 </r>
       <r>    0.5800    1.0000 </r>
       <r>    3.1226    0.0000 </r>
       <r>    4.5631    0.0000 </r>
       <r>    5.4626    0.0000 </r>
       <r>    6.9802    0.0000 </r>
      </set>
      <set comment="kpoint 30">
       <r>   -3.2890    1.0000 </r>
       <r>   -2.6849    1.0000 </r>
       <r>   -1.3277    1.0000 </r>
       <r>   -1.3124    1.0000 </r>
       <r>   -1.2162    1.0000 </r>
       <r>   -1.1934    1.0000 </r>
       <r>   -1.1518    1.0000 </r>
       <r>   -1.0625    1.0000 </r>
       <r>   -0.9167    1.0000 </r>
       <r>   -0.8745    1.0000 </r>
       <r>   -0.7267    1.0000 </r>
       <r>   -0.6842    1.0000 </r>
       <r>   -0.4900    1.0000 </r>
       <r>   -0.4079    1.0000 </r>
       <r>   -0.2999    1.0000 </r>
       <r>   -0.2899    1.0000 </r>
       <r>   -0.1516    1.0000 </r>
       <r>   -0.0187    1.0000 </r>
       <r>    0.0399    1.0000 </r>
       <r>    0.0929    1.0000 </r>
       <r>    0.0934    1.0000 </r>
       <r>    0.2142    1.0000 </r>
       <r>    3.7702    0.0000 </r>
       <r>    4.4987    0.0000 </r>
       <r>    5.3408    0.0000 </r>
       <r>    6.0967    0.0000 </r>
      </set>
      <set comment="kpoint 31">
       <r>   -3.9874    1.0000 </r>
       <r>   -1.6878    1.0000 </r>
       <r>   -1.6878    1.0000 </r>
       <r>   -1.4692    1.0000 </r>
       <r>   -1.2426    1.0000 </r>
       <r>   -1.2426    1.0000 </r>
       <r>   -1.2386    1.0000 </r>
       <r>   -0.9274    1.0000 </r>
       <r>   -0.7717    1.0000 </r>
       <r>   -0.7717    1.0000 </r>
       <r>   -0.6816    1.0000 </r>
       <r>   -0.6408    1.0000 </r>
       <r>   -0.5921    1.0000 </r>
       <r>   -0.2959    1.0000 </r>
       <r>   -0.2713    1.0000 </r>
       <r>   -0.2564    1.0000 </r>
       <r>   -0.2564    1.0000 </r>
       <r>   -0.0594    1.0000 </r>
       <r>    0.0902    1.0000 </r>
       <r>    0.0902    1.0000 </r>
       <r>    0.0911    1.0000 </r>
       <r>    1.6112    0.0621 </r>
       <r>    1.6112    0.0621 </r>
       <r>    4.4149    0.0000 </r>
       <r>    5.3450    0.0000 </r>
       <r>    8.4162    0.0000 </r>
      </set>
      <set comment="kpoint 32">
       <r>   -3.5192    1.0000 </r>
       <r>   -1.9713    1.0000 </r>
       <r>   -1.5518    1.0000 </r>
       <r>   -1.4324    1.0000 </r>
       <r>   -1.1665    1.0000 </r>
       <r>   -1.1613    1.0000 </r>
       <r>   -1.1436    1.0000 </r>
       <r>   -0.9631    1.0000 </r>
       <r>   -0.8923    1.0000 </r>
       <r>   -0.8201    1.0000 </r>
       <r>   -0.7667    1.0000 </r>
       <r>   -0.6679    1.0000 </r>
       <r>   -0.5635    1.0000 </r>
       <r>   -0.3496    1.0000 </r>
       <r>   -0.3302    1.0000 </r>
       <r>   -0.3034    1.0000 </r>
       <r>   -0.2672    1.0000 </r>
       <r>    0.0289    1.0000 </r>
       <r>    0.0500    1.0000 </r>
       <r>    0.0571    1.0000 </r>
       <r>    0.0584    1.0000 </r>
       <r>    0.9012    1.0000 </r>
       <r>    2.1040    0.0000 </r>
       <r>    4.2168    0.0000 </r>
       <r>    5.1209    0.0000 </r>
       <r>    7.4149    0.0000 </r>
      </set>
      <set comment="kpoint 33">
       <r>   -2.9817    1.0000 </r>
       <r>   -2.4337    1.0000 </r>
       <r>   -1.4536    1.0000 </r>
       <r>   -1.4165    1.0000 </r>
       <r>   -1.1254    1.0000 </r>
       <r>   -1.1032    1.0000 </r>
       <r>   -1.0841    1.0000 </r>
       <r>   -1.0171    1.0000 </r>
       <r>   -0.9064    1.0000 </r>
       <r>   -0.8399    1.0000 </r>
       <r>   -0.7920    1.0000 </r>
       <r>   -0.7265    1.0000 </r>
       <r>   -0.5130    1.0000 </r>
       <r>   -0.4393    1.0000 </r>
       <r>   -0.3623    1.0000 </r>
       <r>   -0.3486    1.0000 </r>
       <r>   -0.1802    1.0000 </r>
       <r>   -0.0656    1.0000 </r>
       <r>    0.0376    1.0000 </r>
       <r>    0.0381    1.0000 </r>
       <r>    0.2007    1.0000 </r>
       <r>    0.4518    1.0000 </r>
       <r>    2.6976    0.0000 </r>
       <r>    3.4072    0.0000 </r>
       <r>    5.7532    0.0000 </r>
       <r>    6.5267    0.0000 </r>
      </set>
      <set comment="kpoint 34">
       <r>   -3.0900    1.0000 </r>
       <r>   -1.7883    1.0000 </r>
       <r>   -1.7883    1.0000 </r>
       <r>   -1.4769    1.0000 </r>
       <r>   -1.0848    1.0000 </r>
       <r>   -1.0542    1.0000 </r>
       <r>   -1.0542    1.0000 </r>
       <r>   -0.9555    1.0000 </r>
       <r>   -0.8980    1.0000 </r>
       <r>   -0.8980    1.0000 </r>
       <r>   -0.7844    1.0000 </r>
       <r>   -0.6987    1.0000 </r>
       <r>   -0.5618    1.0000 </r>
       <r>   -0.3933    1.0000 </r>
       <r>   -0.3873    1.0000 </r>
       <r>   -0.3873    1.0000 </r>
       <r>   -0.2601    1.0000 </r>
       <r>   -0.0120    1.0000 </r>
       <r>   -0.0120    1.0000 </r>
       <r>    0.0110    1.0000 </r>
       <r>    0.2004    1.0000 </r>
       <r>    1.3030    1.0000 </r>
       <r>    1.3030    1.0000 </r>
       <r>    3.2776    0.0000 </r>
       <r>    5.6406    0.0000 </r>
       <r>    7.9779    0.0000 </r>
      </set>
      <set comment="kpoint 35">
       <r>   -2.6153    1.0000 </r>
       <r>   -2.1574    1.0000 </r>
       <r>   -1.6428    1.0000 </r>
       <r>   -1.5430    1.0000 </r>
       <r>   -1.0237    1.0000 </r>
       <r>   -0.9925    1.0000 </r>
       <r>   -0.9904    1.0000 </r>
       <r>   -0.9640    1.0000 </r>
       <r>   -0.8971    1.0000 </r>
       <r>   -0.8419    1.0000 </r>
       <r>   -0.8230    1.0000 </r>
       <r>   -0.7589    1.0000 </r>
       <r>   -0.5330    1.0000 </r>
       <r>   -0.4700    1.0000 </r>
       <r>   -0.4301    1.0000 </r>
       <r>   -0.4227    1.0000 </r>
       <r>   -0.2011    1.0000 </r>
       <r>   -0.1049    1.0000 </r>
       <r>   -0.0335    1.0000 </r>
       <r>   -0.0247    1.0000 </r>
       <r>    0.4120    1.0000 </r>
       <r>    0.7507    1.0000 </r>
       <r>    1.8156    0.0000 </r>
       <r>    2.4690    0.0000 </r>
       <r>    6.3033    0.0000 </r>
       <r>    7.0828    0.0000 </r>
      </set>
      <set comment="kpoint 36">
       <r>   -2.2375    1.0000 </r>
       <r>   -1.9030    1.0000 </r>
       <r>   -1.9030    1.0000 </r>
       <r>   -1.6995    1.0000 </r>
       <r>   -0.9392    1.0000 </r>
       <r>   -0.9191    1.0000 </r>
       <r>   -0.8976    1.0000 </r>
       <r>   -0.8976    1.0000 </r>
       <r>   -0.8816    1.0000 </r>
       <r>   -0.8816    1.0000 </r>
       <r>   -0.8344    1.0000 </r>
       <r>   -0.8016    1.0000 </r>
       <r>   -0.5350    1.0000 </r>
       <r>   -0.4937    1.0000 </r>
       <r>   -0.4937    1.0000 </r>
       <r>   -0.4826    1.0000 </r>
       <r>   -0.1803    1.0000 </r>
       <r>   -0.1145    1.0000 </r>
       <r>   -0.1145    1.0000 </r>
       <r>   -0.0834    1.0000 </r>
       <r>    0.7072    1.0000 </r>
       <r>    1.1548    1.0000 </r>
       <r>    1.1548    1.0000 </r>
       <r>    1.7170    0.0000 </r>
       <r>    6.9731    0.0000 </r>
       <r>    7.7597    0.0000 </r>
      </set>
      <set comment="kpoint 37">
       <r>   -4.4839    1.0000 </r>
       <r>   -1.6379    1.0000 </r>
       <r>   -1.6379    1.0000 </r>
       <r>   -1.6379    1.0000 </r>
       <r>   -1.3376    1.0000 </r>
       <r>   -1.3376    1.0000 </r>
       <r>   -1.3376    1.0000 </r>
       <r>   -0.8706    1.0000 </r>
       <r>   -0.6406    1.0000 </r>
       <r>   -0.6406    1.0000 </r>
       <r>   -0.5528    1.0000 </r>
       <r>   -0.5528    1.0000 </r>
       <r>   -0.5528    1.0000 </r>
       <r>   -0.2197    1.0000 </r>
       <r>   -0.2197    1.0000 </r>
       <r>   -0.2169    1.0000 </r>
       <r>   -0.2169    1.0000 </r>
       <r>   -0.2169    1.0000 </r>
       <r>    0.1579    1.0000 </r>
       <r>    0.1579    1.0000 </r>
       <r>    0.1579    1.0000 </r>
       <r>    2.4131    0.0000 </r>
       <r>    2.4131    0.0000 </r>
       <r>    2.4131    0.0000 </r>
       <r>    7.8389    0.0000 </r>
       <r>    7.8389    0.0000 </r>
      </set>
      <set comment="kpoint 38">
       <r>   -4.1127    1.0000 </r>
       <r>   -1.7615    1.0000 </r>
       <r>   -1.5597    1.0000 </r>
       <r>   -1.5597    1.0000 </r>
       <r>   -1.2595    1.0000 </r>
       <r>   -1.2516    1.0000 </r>
       <r>   -1.2516    1.0000 </r>
       <r>   -0.8943    1.0000 </r>
       <r>   -0.6796    1.0000 </r>
       <r>   -0.6796    1.0000 </r>
       <r>   -0.6757    1.0000 </r>
       <r>   -0.6370    1.0000 </r>
       <r>   -0.6287    1.0000 </r>
       <r>   -0.3094    1.0000 </r>
       <r>   -0.2776    1.0000 </r>
       <r>   -0.2776    1.0000 </r>
       <r>   -0.2280    1.0000 </r>
       <r>   -0.1456    1.0000 </r>
       <r>    0.1395    1.0000 </r>
       <r>    0.1395    1.0000 </r>
       <r>    0.1492    1.0000 </r>
       <r>    1.4634    0.9959 </r>
       <r>    2.8406    0.0000 </r>
       <r>    2.8406    0.0000 </r>
       <r>    6.7271    0.0000 </r>
       <r>    6.7271    0.0000 </r>
      </set>
      <set comment="kpoint 39">
       <r>   -3.6394    1.0000 </r>
       <r>   -2.0576    1.0000 </r>
       <r>   -1.4852    1.0000 </r>
       <r>   -1.4852    1.0000 </r>
       <r>   -1.1720    1.0000 </r>
       <r>   -1.1720    1.0000 </r>
       <r>   -1.1698    1.0000 </r>
       <r>   -0.9407    1.0000 </r>
       <r>   -0.7810    1.0000 </r>
       <r>   -0.7810    1.0000 </r>
       <r>   -0.7523    1.0000 </r>
       <r>   -0.6554    1.0000 </r>
       <r>   -0.5991    1.0000 </r>
       <r>   -0.4005    1.0000 </r>
       <r>   -0.3277    1.0000 </r>
       <r>   -0.3277    1.0000 </r>
       <r>   -0.1724    1.0000 </r>
       <r>   -0.0677    1.0000 </r>
       <r>    0.1128    1.0000 </r>
       <r>    0.1128    1.0000 </r>
       <r>    0.1195    1.0000 </r>
       <r>    0.7499    1.0000 </r>
       <r>    3.3597    0.0000 </r>
       <r>    3.3597    0.0000 </r>
       <r>    5.7477    0.0000 </r>
       <r>    5.7477    0.0000 </r>
      </set>
      <set comment="kpoint 40">
       <r>   -3.0937    1.0000 </r>
       <r>   -2.5337    1.0000 </r>
       <r>   -1.4322    1.0000 </r>
       <r>   -1.4322    1.0000 </r>
       <r>   -1.1440    1.0000 </r>
       <r>   -1.1440    1.0000 </r>
       <r>   -1.0821    1.0000 </r>
       <r>   -1.0046    1.0000 </r>
       <r>   -0.8162    1.0000 </r>
       <r>   -0.8162    1.0000 </r>
       <r>   -0.7520    1.0000 </r>
       <r>   -0.7044    1.0000 </r>
       <r>   -0.5498    1.0000 </r>
       <r>   -0.4826    1.0000 </r>
       <r>   -0.3651    1.0000 </r>
       <r>   -0.3651    1.0000 </r>
       <r>   -0.0136    1.0000 </r>
       <r>    0.0062    1.0000 </r>
       <r>    0.0704    1.0000 </r>
       <r>    0.0947    1.0000 </r>
       <r>    0.0947    1.0000 </r>
       <r>    0.2763    1.0000 </r>
       <r>    3.9184    0.0000 </r>
       <r>    3.9184    0.0000 </r>
       <r>    4.9567    0.0000 </r>
       <r>    4.9567    0.0000 </r>
      </set>
      <set comment="kpoint 41">
       <r>   -3.7611    1.0000 </r>
       <r>   -1.6875    1.0000 </r>
       <r>   -1.6875    1.0000 </r>
       <r>   -1.5486    1.0000 </r>
       <r>   -1.1674    1.0000 </r>
       <r>   -1.1621    1.0000 </r>
       <r>   -1.1621    1.0000 </r>
       <r>   -0.8812    1.0000 </r>
       <r>   -0.7542    1.0000 </r>
       <r>   -0.7542    1.0000 </r>
       <r>   -0.7058    1.0000 </r>
       <r>   -0.6487    1.0000 </r>
       <r>   -0.6361    1.0000 </r>
       <r>   -0.3670    1.0000 </r>
       <r>   -0.3670    1.0000 </r>
       <r>   -0.3590    1.0000 </r>
       <r>   -0.2037    1.0000 </r>
       <r>   -0.0899    1.0000 </r>
       <r>    0.1267    1.0000 </r>
       <r>    0.1367    1.0000 </r>
       <r>    0.1367    1.0000 </r>
       <r>    1.8272    0.0000 </r>
       <r>    1.8272    0.0000 </r>
       <r>    3.2156    0.0000 </r>
       <r>    5.6275    0.0000 </r>
       <r>    7.1634    0.0000 </r>
      </set>
      <set comment="kpoint 42">
       <r>   -3.3202    1.0000 </r>
       <r>   -1.9446    1.0000 </r>
       <r>   -1.6252    1.0000 </r>
       <r>   -1.5462    1.0000 </r>
       <r>   -1.0946    1.0000 </r>
       <r>   -1.0734    1.0000 </r>
       <r>   -1.0599    1.0000 </r>
       <r>   -0.8851    1.0000 </r>
       <r>   -0.7937    1.0000 </r>
       <r>   -0.7926    1.0000 </r>
       <r>   -0.7233    1.0000 </r>
       <r>   -0.6743    1.0000 </r>
       <r>   -0.6247    1.0000 </r>
       <r>   -0.4546    1.0000 </r>
       <r>   -0.4150    1.0000 </r>
       <r>   -0.4086    1.0000 </r>
       <r>   -0.1594    1.0000 </r>
       <r>    0.0101    1.0000 </r>
       <r>    0.0998    1.0000 </r>
       <r>    0.1059    1.0000 </r>
       <r>    0.1091    1.0000 </r>
       <r>    1.0278    1.0000 </r>
       <r>    2.2904    0.0000 </r>
       <r>    3.5991    0.0000 </r>
       <r>    4.7673    0.0000 </r>
       <r>    6.1722    0.0000 </r>
      </set>
      <set comment="kpoint 43">
       <r>   -2.8265    1.0000 </r>
       <r>   -2.3418    1.0000 </r>
       <r>   -1.5807    1.0000 </r>
       <r>   -1.5552    1.0000 </r>
       <r>   -1.0578    1.0000 </r>
       <r>   -1.0467    1.0000 </r>
       <r>   -0.9693    1.0000 </r>
       <r>   -0.9121    1.0000 </r>
       <r>   -0.7816    1.0000 </r>
       <r>   -0.7603    1.0000 </r>
       <r>   -0.7281    1.0000 </r>
       <r>   -0.7277    1.0000 </r>
       <r>   -0.5890    1.0000 </r>
       <r>   -0.5309    1.0000 </r>
       <r>   -0.4469    1.0000 </r>
       <r>   -0.4415    1.0000 </r>
       <r>   -0.0507    1.0000 </r>
       <r>    0.0505    1.0000 </r>
       <r>    0.0789    1.0000 </r>
       <r>    0.0809    1.0000 </r>
       <r>    0.1608    1.0000 </r>
       <r>    0.4745    1.0000 </r>
       <r>    2.8506    0.0000 </r>
       <r>    3.4517    0.0000 </r>
       <r>    4.6916    0.0000 </r>
       <r>    5.3260    0.0000 </r>
      </set>
      <set comment="kpoint 44">
       <r>   -2.9332    1.0000 </r>
       <r>   -1.8420    1.0000 </r>
       <r>   -1.8420    1.0000 </r>
       <r>   -1.6135    1.0000 </r>
       <r>   -1.0196    1.0000 </r>
       <r>   -0.9576    1.0000 </r>
       <r>   -0.9576    1.0000 </r>
       <r>   -0.8285    1.0000 </r>
       <r>   -0.7935    1.0000 </r>
       <r>   -0.7935    1.0000 </r>
       <r>   -0.6949    1.0000 </r>
       <r>   -0.6744    1.0000 </r>
       <r>   -0.6357    1.0000 </r>
       <r>   -0.4900    1.0000 </r>
       <r>   -0.4900    1.0000 </r>
       <r>   -0.4820    1.0000 </r>
       <r>   -0.1537    1.0000 </r>
       <r>    0.0704    1.0000 </r>
       <r>    0.0725    1.0000 </r>
       <r>    0.0725    1.0000 </r>
       <r>    0.1523    1.0000 </r>
       <r>    1.4125    1.0000 </r>
       <r>    1.4125    1.0000 </r>
       <r>    3.2816    0.0000 </r>
       <r>    4.6089    0.0000 </r>
       <r>    6.7251    0.0000 </r>
      </set>
      <set comment="kpoint 45">
       <r>   -2.5227    1.0000 </r>
       <r>   -2.1447    1.0000 </r>
       <r>   -1.7565    1.0000 </r>
       <r>   -1.6827    1.0000 </r>
       <r>   -0.9683    1.0000 </r>
       <r>   -0.9422    1.0000 </r>
       <r>   -0.8428    1.0000 </r>
       <r>   -0.7968    1.0000 </r>
       <r>   -0.7893    1.0000 </r>
       <r>   -0.7471    1.0000 </r>
       <r>   -0.7116    1.0000 </r>
       <r>   -0.6570    1.0000 </r>
       <r>   -0.6140    1.0000 </r>
       <r>   -0.5614    1.0000 </r>
       <r>   -0.5192    1.0000 </r>
       <r>   -0.5153    1.0000 </r>
       <r>   -0.0890    1.0000 </r>
       <r>    0.0046    1.0000 </r>
       <r>    0.0421    1.0000 </r>
       <r>    0.0425    1.0000 </r>
       <r>    0.3724    1.0000 </r>
       <r>    0.7691    1.0000 </r>
       <r>    1.9205    0.0000 </r>
       <r>    2.5622    0.0000 </r>
       <r>    5.1284    0.0000 </r>
       <r>    5.8547    0.0000 </r>
      </set>
      <set comment="kpoint 46">
       <r>   -2.2259    1.0000 </r>
       <r>   -1.9684    1.0000 </r>
       <r>   -1.9684    1.0000 </r>
       <r>   -1.8174    1.0000 </r>
       <r>   -0.8964    1.0000 </r>
       <r>   -0.8511    1.0000 </r>
       <r>   -0.8511    1.0000 </r>
       <r>   -0.7906    1.0000 </r>
       <r>   -0.6871    1.0000 </r>
       <r>   -0.6770    1.0000 </r>
       <r>   -0.6770    1.0000 </r>
       <r>   -0.6218    1.0000 </r>
       <r>   -0.6198    1.0000 </r>
       <r>   -0.5781    1.0000 </r>
       <r>   -0.5781    1.0000 </r>
       <r>   -0.5707    1.0000 </r>
       <r>   -0.0815    1.0000 </r>
       <r>   -0.0215    1.0000 </r>
       <r>   -0.0215    1.0000 </r>
       <r>   -0.0023    1.0000 </r>
       <r>    0.6879    1.0000 </r>
       <r>    1.1915    1.0000 </r>
       <r>    1.1915    1.0000 </r>
       <r>    1.7870    0.0000 </r>
       <r>    5.7521    0.0000 </r>
       <r>    6.5120    0.0000 </r>
      </set>
      <set comment="kpoint 47">
       <r>   -3.4386    1.0000 </r>
       <r>   -1.6932    1.0000 </r>
       <r>   -1.6932    1.0000 </r>
       <r>   -1.6932    1.0000 </r>
       <r>   -1.0669    1.0000 </r>
       <r>   -1.0669    1.0000 </r>
       <r>   -1.0669    1.0000 </r>
       <r>   -0.8171    1.0000 </r>
       <r>   -0.7247    1.0000 </r>
       <r>   -0.7247    1.0000 </r>
       <r>   -0.7247    1.0000 </r>
       <r>   -0.6619    1.0000 </r>
       <r>   -0.6619    1.0000 </r>
       <r>   -0.4496    1.0000 </r>
       <r>   -0.4496    1.0000 </r>
       <r>   -0.4496    1.0000 </r>
       <r>   -0.1096    1.0000 </r>
       <r>   -0.1096    1.0000 </r>
       <r>    0.1439    1.0000 </r>
       <r>    0.1439    1.0000 </r>
       <r>    0.1439    1.0000 </r>
       <r>    2.1426    0.0000 </r>
       <r>    2.1426    0.0000 </r>
       <r>    2.1426    0.0000 </r>
       <r>    6.0511    0.0000 </r>
       <r>    6.0511    0.0000 </r>
      </set>
      <set comment="kpoint 48">
       <r>   -3.0458    1.0000 </r>
       <r>   -1.9189    1.0000 </r>
       <r>   -1.7010    1.0000 </r>
       <r>   -1.7010    1.0000 </r>
       <r>   -0.9988    1.0000 </r>
       <r>   -0.9988    1.0000 </r>
       <r>   -0.9499    1.0000 </r>
       <r>   -0.7581    1.0000 </r>
       <r>   -0.7319    1.0000 </r>
       <r>   -0.6861    1.0000 </r>
       <r>   -0.6718    1.0000 </r>
       <r>   -0.6718    1.0000 </r>
       <r>   -0.6646    1.0000 </r>
       <r>   -0.5316    1.0000 </r>
       <r>   -0.5007    1.0000 </r>
       <r>   -0.5007    1.0000 </r>
       <r>   -0.0619    1.0000 </r>
       <r>   -0.0229    1.0000 </r>
       <r>    0.1242    1.0000 </r>
       <r>    0.1242    1.0000 </r>
       <r>    0.1373    1.0000 </r>
       <r>    1.2531    1.0000 </r>
       <r>    2.5384    0.0000 </r>
       <r>    2.5384    0.0000 </r>
       <r>    5.1124    0.0000 </r>
       <r>    5.1124    0.0000 </r>
      </set>
      <set comment="kpoint 49">
       <r>   -2.6258    1.0000 </r>
       <r>   -2.2347    1.0000 </r>
       <r>   -1.7063    1.0000 </r>
       <r>   -1.7063    1.0000 </r>
       <r>   -0.9732    1.0000 </r>
       <r>   -0.9732    1.0000 </r>
       <r>   -0.8341    1.0000 </r>
       <r>   -0.7437    1.0000 </r>
       <r>   -0.7306    1.0000 </r>
       <r>   -0.7289    1.0000 </r>
       <r>   -0.6429    1.0000 </r>
       <r>   -0.6134    1.0000 </r>
       <r>   -0.6134    1.0000 </r>
       <r>   -0.5976    1.0000 </r>
       <r>   -0.5302    1.0000 </r>
       <r>   -0.5302    1.0000 </r>
       <r>    0.0507    1.0000 </r>
       <r>    0.1017    1.0000 </r>
       <r>    0.1017    1.0000 </r>
       <r>    0.1052    1.0000 </r>
       <r>    0.1482    1.0000 </r>
       <r>    0.5826    1.0000 </r>
       <r>    2.9199    0.0000 </r>
       <r>    2.9199    0.0000 </r>
       <r>    4.4544    0.0000 </r>
       <r>    4.4544    0.0000 </r>
      </set>
      <set comment="kpoint 50">
       <r>   -2.7291    1.0000 </r>
       <r>   -1.8939    1.0000 </r>
       <r>   -1.8939    1.0000 </r>
       <r>   -1.7685    1.0000 </r>
       <r>   -0.9388    1.0000 </r>
       <r>   -0.8967    1.0000 </r>
       <r>   -0.8967    1.0000 </r>
       <r>   -0.7045    1.0000 </r>
       <r>   -0.6878    1.0000 </r>
       <r>   -0.6215    1.0000 </r>
       <r>   -0.6215    1.0000 </r>
       <r>   -0.5978    1.0000 </r>
       <r>   -0.5687    1.0000 </r>
       <r>   -0.5687    1.0000 </r>
       <r>   -0.5677    1.0000 </r>
       <r>   -0.5528    1.0000 </r>
       <r>   -0.0564    1.0000 </r>
       <r>    0.0838    1.0000 </r>
       <r>    0.1137    1.0000 </r>
       <r>    0.1224    1.0000 </r>
       <r>    0.1224    1.0000 </r>
       <r>    1.5926    0.1557 </r>
       <r>    1.5926    0.1557 </r>
       <r>    2.7236    0.0000 </r>
       <r>    4.3799    0.0000 </r>
       <r>    5.6306    0.0000 </r>
      </set>
      <set comment="kpoint 51">
       <r>   -2.4121    1.0000 </r>
       <r>   -2.1295    1.0000 </r>
       <r>   -1.8637    1.0000 </r>
       <r>   -1.8229    1.0000 </r>
       <r>   -0.9022    1.0000 </r>
       <r>   -0.8881    1.0000 </r>
       <r>   -0.8077    1.0000 </r>
       <r>   -0.7435    1.0000 </r>
       <r>   -0.6785    1.0000 </r>
       <r>   -0.6443    1.0000 </r>
       <r>   -0.6096    1.0000 </r>
       <r>   -0.6032    1.0000 </r>
       <r>   -0.5439    1.0000 </r>
       <r>   -0.5165    1.0000 </r>
       <r>   -0.4931    1.0000 </r>
       <r>   -0.4772    1.0000 </r>
       <r>    0.0164    1.0000 </r>
       <r>    0.0891    1.0000 </r>
       <r>    0.0935    1.0000 </r>
       <r>    0.0960    1.0000 </r>
       <r>    0.3220    1.0000 </r>
[...]
       <r>   -1.9332    1.0000 </r>
       <r>   -0.8585    1.0000 </r>
       <r>   -0.8585    1.0000 </r>
       <r>   -0.8585    1.0000 </r>
       <r>   -0.7150    1.0000 </r>
       <r>   -0.7150    1.0000 </r>
       <r>   -0.6391    1.0000 </r>
       <r>   -0.6391    1.0000 </r>
       <r>   -0.6391    1.0000 </r>
       <r>   -0.4256    1.0000 </r>
       <r>   -0.4256    1.0000 </r>
       <r>   -0.4256    1.0000 </r>
       <r>   -0.2764    1.0000 </r>
       <r>    0.0264    1.0000 </r>
       <r>    0.0264    1.0000 </r>
       <r>    0.1329    1.0000 </r>
       <r>    0.1329    1.0000 </r>
       <r>    0.1329    1.0000 </r>
       <r>    1.8366    0.0000 </r>
       <r>    1.8366    0.0000 </r>
       <r>    1.8366    0.0000 </r>
       <r>    4.7445    0.0000 </r>
       <r>    4.7445    0.0000 </r>
      </set>
      <set comment="kpoint 54">
       <r>   -2.2992    1.0000 </r>
       <r>   -2.1083    1.0000 </r>
       <r>   -1.9542    1.0000 </r>
       <r>   -1.9542    1.0000 </r>
       <r>   -0.8384    1.0000 </r>
       <r>   -0.8384    1.0000 </r>
       <r>   -0.7915    1.0000 </r>
       <r>   -0.7437    1.0000 </r>
       <r>   -0.7155    1.0000 </r>
       <r>   -0.6896    1.0000 </r>
       <r>   -0.6700    1.0000 </r>
       <r>   -0.6700    1.0000 </r>
       <r>   -0.2998    1.0000 </r>
       <r>   -0.2998    1.0000 </r>
       <r>   -0.2975    1.0000 </r>
       <r>   -0.1866    1.0000 </r>
       <r>    0.0880    1.0000 </r>
       <r>    0.1181    1.0000 </r>
       <r>    0.1181    1.0000 </r>
       <r>    0.1241    1.0000 </r>
       <r>    0.3435    1.0000 </r>
       <r>    1.0124    1.0000 </r>
       <r>    2.0604    0.0000 </r>
       <r>    2.0604    0.0000 </r>
       <r>    4.1887    0.0000 </r>
       <r>    4.1887    0.0000 </r>
      </set>
      <set comment="kpoint 55">
       <r>   -2.1882    1.0000 </r>
       <r>   -2.0750    1.0000 </r>
       <r>   -2.0750    1.0000 </r>
       <r>   -2.0246    1.0000 </r>
       <r>   -0.8019    1.0000 </r>
       <r>   -0.7866    1.0000 </r>
       <r>   -0.7866    1.0000 </r>
       <r>   -0.7522    1.0000 </r>
       <r>   -0.7332    1.0000 </r>
       <r>   -0.7147    1.0000 </r>
       <r>   -0.7147    1.0000 </r>
       <r>   -0.7083    1.0000 </r>
       <r>   -0.1534    1.0000 </r>
       <r>   -0.1382    1.0000 </r>
       <r>   -0.1382    1.0000 </r>
       <r>   -0.0312    1.0000 </r>
       <r>    0.0725    1.0000 </r>
       <r>    0.1099    1.0000 </r>
       <r>    0.1102    1.0000 </r>
       <r>    0.1102    1.0000 </r>
       <r>    0.7152    1.0000 </r>
       <r>    1.3575    1.0000 </r>
       <r>    1.3575    1.0000 </r>
       <r>    1.7898    0.0000 </r>
       <r>    4.1313    0.0000 </r>
       <r>    4.5814    0.0000 </r>
      </set>
      <set comment="kpoint 56">
       <r>   -2.1526    1.0000 </r>
       <r>   -2.0989    1.0000 </r>
       <r>   -2.0989    1.0000 </r>
       <r>   -2.0989    1.0000 </r>
       <r>   -0.7689    1.0000 </r>
       <r>   -0.7689    1.0000 </r>
       <r>   -0.7689    1.0000 </r>
       <r>   -0.7522    1.0000 </r>
       <r>   -0.7522    1.0000 </r>
       <r>   -0.7437    1.0000 </r>
       <r>   -0.7437    1.0000 </r>
       <r>   -0.7437    1.0000 </r>
       <r>    0.0308    1.0000 </r>
       <r>    0.0308    1.0000 </r>
       <r>    0.0308    1.0000 </r>
       <r>    0.1142    1.0000 </r>
       <r>    0.1142    1.0000 </r>
       <r>    0.1266    1.0000 </r>
       <r>    0.1266    1.0000 </r>
       <r>    0.1266    1.0000 </r>
       <r>    0.9973    1.0000 </r>
       <r>    1.4586    0.9973 </r>
       <r>    1.4586    0.9973 </r>
       <r>    1.4586    0.9973 </r>
       <r>    4.0753    0.0000 </r>
       <r>    4.0753    0.0000 </r>
      </set>
     </set>
    </set>
   </array>
  </eigenvalues>
  <separator name="orbital magnetization" >
   <v name="MAGDIPOLOUT">      0.00000000      0.00000000      0.00000000</v>
  </separator>
  <dos>
   <i name="efermi">      1.55683550 </i>
   <total>
    <array>
     <dimension dim="1">gridpoints</dimension>
     <dimension dim="2">spin</dimension>
     <field>energy</field>
     <field>total</field>
     <field>integrated</field>
     <set>
      <set comment="spin 1">
       <r>    -6.4062     0.0000     0.0000 </r>
       <r>    -6.3520     0.0000     0.0000 </r>
       <r>    -6.2978     0.0000     0.0000 </r>
       <r>    -6.2435     0.0000     0.0000 </r>
       <r>    -6.1893     0.0000     0.0000 </r>
       <r>    -6.1351     0.0000     0.0000 </r>
       <r>    -6.0808     0.0000     0.0000 </r>
       <r>    -6.0266     0.0000     0.0000 </r>
       <r>    -5.9724     0.0000     0.0000 </r>
       <r>    -5.9182     0.0000     0.0000 </r>
       <r>    -5.8639     0.0000     0.0000 </r>
       <r>    -5.8097     0.0000     0.0000 </r>
       <r>    -5.7555     0.0010     0.0001 </r>
       <r>    -5.7013     0.0271     0.0015 </r>
       <r>    -5.6470     0.0937     0.0066 </r>
       <r>    -5.5928     0.0666     0.0102 </r>
       <r>    -5.5386     0.1955     0.0208 </r>
       <r>    -5.4843     0.2547     0.0346 </r>
       <r>    -5.4301     0.1302     0.0417 </r>
       <r>    -5.3759     0.2826     0.0570 </r>
       <r>    -5.3217     0.1664     0.0660 </r>
       <r>    -5.2674     0.2778     0.0811 </r>
       <r>    -5.2132     0.3346     0.0992 </r>
       <r>    -5.1590     0.2509     0.1128 </r>
       <r>    -5.1047     0.5709     0.1438 </r>
       <r>    -5.0505     0.2720     0.1586 </r>
       <r>    -4.9963     0.2430     0.1717 </r>
       <r>    -4.9421     0.2337     0.1844 </r>
       <r>    -4.8878     0.2815     0.1997 </r>
       <r>    -4.8336     0.5714     0.2307 </r>
       <r>    -4.7794     0.3451     0.2494 </r>
       <r>    -4.7251     0.7900     0.2922 </r>
       <r>    -4.6709     0.5544     0.3223 </r>
       <r>    -4.6167     0.2344     0.3350 </r>
       <r>    -4.5625     0.2697     0.3496 </r>
       <r>    -4.5082     0.2894     0.3653 </r>
       <r>    -4.4540     0.6691     0.4016 </r>
       <r>    -4.3998     0.4087     0.4238 </r>
       <r>    -4.3456     0.7682     0.4654 </r>
       <r>    -4.2913     0.6047     0.4982 </r>
       <r>    -4.2371     0.3990     0.5198 </r>
       <r>    -4.1829     0.5588     0.5501 </r>
       <r>    -4.1286     0.5033     0.5774 </r>
       <r>    -4.0744     0.8544     0.6238 </r>
       <r>    -4.0202     0.4832     0.6500 </r>
       <r>    -3.9660     0.8317     0.6951 </r>
       <r>    -3.9117     0.5533     0.7251 </r>
       <r>    -3.8575     0.5340     0.7540 </r>
       <r>    -3.8033     0.4681     0.7794 </r>
       <r>    -3.7490     0.4790     0.8054 </r>
       <r>    -3.6948     0.5069     0.8329 </r>
       <r>    -3.6406     0.8560     0.8793 </r>
       <r>    -3.5864     1.3833     0.9543 </r>
       <r>    -3.5321     0.8063     0.9980 </r>
       <r>    -3.4779     0.8610     1.0447 </r>
       <r>    -3.4237     0.4912     1.0714 </r>
       <r>    -3.3694     0.7204     1.1104 </r>
       <r>    -3.3152     0.9710     1.1631 </r>
       <r>    -3.2610     0.9971     1.2172 </r>
       <r>    -3.2068     0.3469     1.2360 </r>
       <r>    -3.1525     0.3528     1.2551 </r>
       <r>    -3.0983     0.8588     1.3017 </r>
       <r>    -3.0441     1.6410     1.3907 </r>
       <r>    -2.9899     1.3408     1.4634 </r>
       <r>    -2.9356     1.3514     1.5367 </r>
       <r>    -2.8814     0.7364     1.5766 </r>
       <r>    -2.8272     0.7935     1.6196 </r>
       <r>    -2.7729     0.9698     1.6722 </r>
       <r>    -2.7187     1.0657     1.7300 </r>
       <r>    -2.6645     1.4571     1.8090 </r>
       <r>    -2.6103     1.4786     1.8892 </r>
       <r>    -2.5560     0.9768     1.9422 </r>
       <r>    -2.5018     1.4575     2.0212 </r>
       <r>    -2.4476     1.7724     2.1173 </r>
       <r>    -2.3933     1.8137     2.2157 </r>
       <r>    -2.3391     1.5482     2.2996 </r>
       <r>    -2.2849     1.3061     2.3705 </r>
       <r>    -2.2307     1.9138     2.4742 </r>
       <r>    -2.1764     3.1815     2.6468 </r>
       <r>    -2.1222     3.7781     2.8516 </r>
       <r>    -2.0680     2.9096     3.0094 </r>
       <r>    -2.0137     2.8297     3.1629 </r>
       <r>    -1.9595     4.0309     3.3815 </r>
       <r>    -1.9053     4.9971     3.6524 </r>
       <r>    -1.8511     5.9863     3.9771 </r>
       <r>    -1.7968     6.2554     4.3163 </r>
       <r>    -1.7426     5.9160     4.6371 </r>
       <r>    -1.6884     7.7277     5.0562 </r>
       <r>    -1.6342     6.8798     5.4292 </r>
       <r>    -1.5799     8.0651     5.8666 </r>
       <r>    -1.5257    11.0995     6.4685 </r>
       <r>    -1.4715    11.0118     7.0656 </r>
       <r>    -1.4172    13.7573     7.8117 </r>
       <r>    -1.3630    13.6665     8.5528 </r>
       <r>    -1.3088    13.0349     9.2596 </r>
       <r>    -1.2546    12.9365     9.9612 </r>
       <r>    -1.2003    12.7367    10.6518 </r>
       <r>    -1.1461    13.3447    11.3755 </r>
       <r>    -1.0919    13.7018    12.1185 </r>
       <r>    -1.0376    14.2972    12.8938 </r>
       <r>    -0.9834    16.0584    13.7646 </r>
       <r>    -0.9292    19.0689    14.7987 </r>
       <r>    -0.8750    20.8414    15.9289 </r>
       <r>    -0.8207    19.8312    17.0043 </r>
       <r>    -0.7665    23.7280    18.2910 </r>
       <r>    -0.7123    26.5568    19.7311 </r>
       <r>    -0.6580    28.9483    21.3009 </r>
       <r>    -0.6038    28.4711    22.8449 </r>
       <r>    -0.5496    22.7403    24.0780 </r>
       <r>    -0.4954    19.1744    25.1178 </r>
       <r>    -0.4411    17.1690    26.0489 </r>
       <r>    -0.3869    17.6860    27.0079 </r>
       <r>    -0.3327    20.4215    28.1154 </r>
       <r>    -0.2785    23.9262    29.4128 </r>
       <r>    -0.2242    24.0250    30.7157 </r>
       <r>    -0.1700    23.6522    31.9983 </r>
       <r>    -0.1158    21.7629    33.1784 </r>
       <r>    -0.0615    20.5554    34.2931 </r>
       <r>    -0.0073    22.2814    35.5014 </r>
       <r>     0.0469    26.4145    36.9338 </r>
       <r>     0.1011    33.0425    38.7256 </r>
       <r>     0.1554    31.6780    40.4434 </r>
       <r>     0.2096    19.2142    41.4854 </r>
       <r>     0.2638     7.1815    41.8748 </r>
       <r>     0.3181     1.8522    41.9753 </r>
       <r>     0.3723     1.8168    42.0738 </r>
       <r>     0.4265     2.4561    42.2070 </r>
       <r>     0.4807     2.8900    42.3637 </r>
       <r>     0.5350     1.6451    42.4529 </r>
       <r>     0.5892     1.0889    42.5120 </r>
       <r>     0.6434     0.8412    42.5576 </r>
       <r>     0.6976     1.7141    42.6505 </r>
       <r>     0.7519     3.0545    42.8162 </r>
       <r>     0.8061     2.2495    42.9381 </r>
       <r>     0.8603     1.6212    43.0261 </r>
       <r>     0.9146     1.3953    43.1017 </r>
       <r>     0.9688     0.6222    43.1355 </r>
       <r>     1.0230     0.8918    43.1838 </r>
       <r>     1.0772     1.2613    43.2522 </r>
       <r>     1.1315     1.1886    43.3167 </r>
       <r>     1.1857     1.8628    43.4177 </r>
       <r>     1.2399     2.3066    43.5428 </r>
       <r>     1.2942     2.3012    43.6676 </r>
       <r>     1.3484     1.3372    43.7401 </r>
       <r>     1.4026     1.0432    43.7966 </r>
       <r>     1.4568     1.1706    43.8601 </r>
       <r>     1.5111     1.4770    43.9402 </r>
       <r>     1.5653     1.2814    44.0097 </r>
       <r>     1.6195     1.2480    44.0774 </r>
       <r>     1.6738     0.8900    44.1257 </r>
       <r>     1.7280     0.9823    44.1789 </r>
       <r>     1.7822     1.7417    44.2734 </r>
       <r>     1.8364     2.2884    44.3975 </r>
       <r>     1.8907     1.5930    44.4838 </r>
       <r>     1.9449     1.3246    44.5557 </r>
       <r>     1.9991     1.0554    44.6129 </r>
       <r>     2.0533     1.6316    44.7014 </r>
       <r>     2.1076     2.0247    44.8112 </r>
       <r>     2.1618     1.1917    44.8758 </r>
       <r>     2.2160     0.2527    44.8895 </r>
       <r>     2.2703     0.3785    44.9100 </r>
       <r>     2.3245     0.8646    44.9569 </r>
       <r>     2.3787     0.7242    44.9962 </r>
       <r>     2.4329     1.5590    45.0807 </r>
       <r>     2.4872     1.5268    45.1635 </r>
       <r>     2.5414     2.2820    45.2873 </r>
       <r>     2.5956     2.7324    45.4354 </r>
       <r>     2.6499     1.1575    45.4982 </r>
       <r>     2.7041     0.7789    45.5404 </r>
       <r>     2.7583     0.8539    45.5867 </r>
       <r>     2.8125     0.7440    45.6271 </r>
       <r>     2.8668     1.2551    45.6952 </r>
       <r>     2.9210     1.0790    45.7537 </r>
       <r>     2.9752     1.2266    45.8202 </r>
       <r>     3.0295     1.0545    45.8774 </r>
       <r>     3.0837     0.3549    45.8966 </r>
       <r>     3.1379     0.8008    45.9400 </r>
       <r>     3.1921     1.3908    46.0155 </r>
       <r>     3.2464     1.2317    46.0823 </r>
       <r>     3.3006     1.0757    46.1406 </r>
       <r>     3.3548     1.3207    46.2122 </r>
       <r>     3.4090     1.3439    46.2851 </r>
       <r>     3.4633     1.6444    46.3743 </r>
       <r>     3.5175     1.5094    46.4561 </r>
       <r>     3.5717     0.9550    46.5079 </r>
       <r>     3.6260     0.9328    46.5585 </r>
       <r>     3.6802     1.3513    46.6318 </r>
       <r>     3.7344     1.1381    46.6935 </r>
       <r>     3.7886     0.7292    46.7330 </r>
       <r>     3.8429     0.3199    46.7504 </r>
       <r>     3.8971     0.4955    46.7772 </r>
       <r>     3.9513     1.2169    46.8432 </r>
       <r>     4.0056     0.8890    46.8914 </r>
       <r>     4.0598     0.5616    46.9219 </r>
       <r>     4.1140     0.8630    46.9687 </r>
       <r>     4.1682     2.2480    47.0906 </r>
       <r>     4.2225     2.0744    47.2031 </r>
       <r>     4.2767     1.0914    47.2623 </r>
       <r>     4.3309     1.1989    47.3273 </r>
       <r>     4.3852     1.0473    47.3841 </r>
       <r>     4.4394     1.4589    47.4632 </r>
       <r>     4.4936     1.4916    47.5441 </r>
       <r>     4.5478     1.7991    47.6416 </r>
       <r>     4.6021     1.6969    47.7336 </r>
       <r>     4.6563     0.7659    47.7752 </r>
       <r>     4.7105     1.0410    47.8316 </r>
       <r>     4.7647     1.7610    47.9271 </r>
       <r>     4.8190     1.3972    48.0029 </r>
       <r>     4.8732     1.2329    48.0698 </r>
       <r>     4.9274     0.6575    48.1054 </r>
       <r>     4.9817     0.9990    48.1596 </r>
       <r>     5.0359     0.7720    48.2014 </r>
       <r>     5.0901     1.0151    48.2565 </r>
       <r>     5.1443     2.4229    48.3879 </r>
       <r>     5.1986     1.1911    48.4525 </r>
       <r>     5.2528     0.7653    48.4940 </r>
       <r>     5.3070     1.5358    48.5773 </r>
       <r>     5.3613     1.7361    48.6714 </r>
       <r>     5.4155     1.1409    48.7333 </r>
       <r>     5.4697     1.3620    48.8071 </r>
       <r>     5.5239     0.6068    48.8400 </r>
       <r>     5.5782     0.2014    48.8509 </r>
       <r>     5.6324     1.2144    48.9168 </r>
       <r>     5.6866     1.5341    49.0000 </r>
       <r>     5.7409     1.3276    49.0720 </r>
       <r>     5.7951     2.2582    49.1944 </r>
       <r>     5.8493     1.5105    49.2764 </r>
       <r>     5.9035     0.6210    49.3100 </r>
       <r>     5.9578     0.0917    49.3150 </r>
       <r>     6.0120     0.1831    49.3249 </r>
       <r>     6.0662     0.9141    49.3745 </r>
       <r>     6.1204     1.0733    49.4327 </r>
       <r>     6.1747     0.8516    49.4789 </r>
       <r>     6.2289     1.1893    49.5434 </r>
       <r>     6.2831     1.7377    49.6376 </r>
       <r>     6.3374     1.3227    49.7093 </r>
       <r>     6.3916     0.3825    49.7301 </r>
       <r>     6.4458     0.5988    49.7626 </r>
       <r>     6.5000     0.9917    49.8163 </r>
       <r>     6.5543     1.9396    49.9215 </r>
       <r>     6.6085     0.8922    49.9699 </r>
       <r>     6.6627     0.3951    49.9913 </r>
       <r>     6.7170     1.1111    50.0516 </r>
       <r>     6.7712     0.9340    50.1022 </r>
       <r>     6.8254     0.1911    50.1126 </r>
       <r>     6.8796     0.3511    50.1316 </r>
       <r>     6.9339     1.0004    50.1859 </r>
       <r>     6.9881     1.6320    50.2744 </r>
       <r>     7.0423     1.9436    50.3798 </r>
       <r>     7.0965     1.9429    50.4851 </r>
       <r>     7.1508     1.3074    50.5560 </r>
       <r>     7.2050     1.0388    50.6124 </r>
       <r>     7.2592     1.0553    50.6696 </r>
       <r>     7.3135     0.8221    50.7142 </r>
       <r>     7.3677     0.9988    50.7683 </r>
       <r>     7.4219     1.9120    50.8720 </r>
       <r>     7.4761     1.1038    50.9319 </r>
       <r>     7.5304     0.3741    50.9521 </r>
       <r>     7.5846     0.5943    50.9844 </r>
       <r>     7.6388     1.4570    51.0634 </r>
       <r>     7.6931     1.6337    51.1520 </r>
       <r>     7.7473     1.4854    51.2325 </r>
       <r>     7.8015     1.1795    51.2965 </r>
       <r>     7.8557     0.8866    51.3446 </r>
       <r>     7.9100     0.9325    51.3952 </r>
       <r>     7.9642     1.1002    51.4548 </r>
       <r>     8.0184     1.0525    51.5119 </r>
       <r>     8.0727     0.5350    51.5409 </r>
       <r>     8.1269     0.5872    51.5727 </r>
       <r>     8.1811     0.3476    51.5916 </r>
       <r>     8.2353     0.1859    51.6017 </r>
       <r>     8.2896     0.4379    51.6254 </r>
       <r>     8.3438     0.5493    51.6552 </r>
       <r>     8.3980     1.0300    51.7111 </r>
       <r>     8.4522     2.5249    51.8480 </r>
       <r>     8.5065     1.1858    51.9123 </r>
       <r>     8.5607     0.0799    51.9166 </r>
       <r>     8.6149     0.0007    51.9167 </r>
       <r>     8.6692     0.0000    51.9167 </r>
       <r>     8.7234     0.0004    51.9167 </r>
       <r>     8.7776     0.0282    51.9182 </r>
       <r>     8.8318     0.2821    51.9335 </r>
       <r>     8.8861     0.5139    51.9614 </r>
       <r>     8.9403     0.1879    51.9716 </r>
       <r>     8.9945     0.0119    51.9722 </r>
       <r>     9.0488     0.0094    51.9727 </r>
       <r>     9.1030     0.1384    51.9802 </r>
       <r>     9.1572     0.2802    51.9954 </r>
       <r>     9.2114     0.0812    51.9998 </r>
       <r>     9.2657     0.0031    52.0000 </r>
       <r>     9.3199     0.0000    52.0000 </r>
       <r>     9.3741     0.0000    52.0000 </r>
       <r>     9.4284     0.0000    52.0000 </r>
       <r>     9.4826     0.0000    52.0000 </r>
       <r>     9.5368     0.0000    52.0000 </r>
       <r>     9.5910     0.0000    52.0000 </r>
       <r>     9.6453     0.0000    52.0000 </r>
       <r>     9.6995     0.0000    52.0000 </r>
       <r>     9.7537     0.0000    52.0000 </r>
       <r>     9.8079     0.0000    52.0000 </r>
       <r>     9.8622     0.0000    52.0000 </r>
      </set>
     </set>
    </array>
   </total>
  </dos>
 </calculation>
 <structure name="finalpos" >
  <crystal>
   <varray name="basis" >
    <v>       4.00000000       0.00000000       0.00000000 </v>
    <v>       0.00000000       4.00000000       0.00000000 </v>
    <v>       0.00000000       0.00000000       4.00000000 </v>
   </varray>
   <i name="volume">     64.00000000 </i>
   <varray name="rec_basis" >
    <v>       0.25000000       0.00000000       0.00000000 </v>
    <v>       0.00000000       0.25000000       0.00000000 </v>
    <v>       0.00000000       0.00000000       0.25000000 </v>
   </varray>
  </crystal>
  <varray name="positions" >
   <v>       0.00000000       0.00000000       0.00000000 </v>
   <v>       0.50000000       0.50000000       0.00000000 </v>
   <v>       0.00000000       0.50000000       0.50000000 </v>
   <v>       0.50000000       0.00000000       0.50000000 </v>
  </varray>
 </structure>
</modeling>
