fcc Cu                                  
   4.00000000000000     
     0.500000    0.500000    0.000000
     0.000000    0.500000    0.500000
     0.500000    0.000000    0.500000
   Cu
     1
Direct
  0.000000  0.000000  0.000000
 
   24   24   24
  240.79      227.65      192.18      144.25      95.282      54.354      26.296      11.348      5.8660      4.1958    
  3.2316      2.7359      2.5846      2.7359      3.2316      4.1958      5.8660      11.348      26.296      54.354    
  95.282      144.25      192.18      227.65      227.65      203.39      161.92      114.05      70.037      36.722    
  16.503      7.5071      4.8167      3.5987      2.9070      2.6037      2.6028      2.9056      3.5989      4.8181    
  7.5077      16.503      36.722      70.039      114.06      161.92      203.38      227.65      192.18      161.92    
  121.01      79.300      44.733      21.495      9.5719      5.4198      3.9671      3.0928      2.6501      2.5163    
  2.6501      3.0929      3.9674      5.4201      9.5724      21.495      44.733      79.300      121.01      161.92    
  192.18      203.38      144.25      114.05      79.300      47.741      24.572      11.335      6.0105      4.2864    
  3.2702      2.7081      2.4660      2.4667      2.7093      3.2705      4.2857      6.0103      11.335      24.572    
  47.740      79.299      114.06      144.26      161.92      161.92      95.282      70.037      44.733      24.572    
  12.030      6.4040      4.5029      3.4098      2.7629      2.4408      2.3441      2.4408      2.7630      3.4099    
  4.5029      6.4038      12.030      24.572      44.733      70.037      95.283      114.06      121.01      114.06    
  54.354      36.722      21.495      11.335      6.4040      4.5798      3.4863      2.7995      2.4278      2.2683    
  2.2678      2.4268      2.7992      3.4868      4.5802      6.4041      11.335      21.495      36.721      54.352    
  70.037      79.299      79.300      70.039      26.296      16.503      9.5719      6.0105      4.5029      3.4863    
  2.8121      2.4206      2.2252      2.1664      2.2249      2.4203      2.8120      3.4864      4.5031      6.0107    
  9.5717      16.503      26.294      36.721      44.733      47.740      44.733      36.722      11.348      7.5071    
  5.4198      4.2864      3.4098      2.7995      2.4206      2.2107      2.1188      2.1189      2.2109      2.4208    
  2.7994      3.4094      4.2860      5.4198      7.5072      11.348      16.503      21.495      24.572      24.572    
  21.495      16.503      5.8660      4.8167      3.9671      3.2702      2.7629      2.4278      2.2252      2.1188    
  2.0857      2.1186      2.2250      2.4277      2.7632      3.2707      3.9676      4.8170      5.8659      7.5072    
  9.5717      11.335      12.030      11.335      9.5724      7.5077      4.1958      3.5987      3.0928      2.7081    
  2.4408      2.2683      2.1664      2.1189      2.1186      2.1657      2.2678      2.4411      2.7093      3.0941    
  3.5990      4.1950      4.8170      5.4198      6.0107      6.4041      6.4038      6.0103      5.4201      4.8181    
  3.2316      2.9070      2.6501      2.4660      2.3441      2.2678      2.2249      2.2109      2.2250      2.2678    
  2.3441      2.4659      2.6499      2.9069      3.2316      3.5990      3.9676      4.2860      4.5031      4.5802    
  4.5029      4.2857      3.9674      3.5989      2.7359      2.6037      2.5163      2.4667      2.4408      2.4268    
  2.4203      2.4208      2.4277      2.4411      2.4659      2.5147      2.6025      2.7359      2.9069      3.0941    
  3.2707      3.4094      3.4864      3.4868      3.4099      3.2705      3.0929      2.9056      2.5846      2.6028    
  2.6501      2.7093      2.7630      2.7992      2.8120      2.7994      2.7632      2.7093      2.6499      2.6025    
  2.5842      2.6025      2.6499      2.7093      2.7632      2.7994      2.8120      2.7992      2.7630      2.7093    
  2.6501      2.6028      2.7359      2.9056      3.0929      3.2705      3.4099      3.4868      3.4864      3.4094    
  3.2707      3.0941      2.9069      2.7359      2.6025      2.5147      2.4659      2.4411      2.4277      2.4208    
  2.4203      2.4268      2.4408      2.4667      2.5163      2.6037      3.2316      3.5989      3.9674      4.2857    
  4.5029      4.5802      4.5031      4.2860      3.9676      3.5990      3.2316      2.9069      2.6499      2.4659    
  2.3441      2.2678      2.2250      2.2109      2.2249      2.2678      2.3441      2.4660      2.6501      2.9070    
  4.1958      4.8181      5.4201      6.0103      6.4038      6.4041      6.0107      5.4198      4.8170      4.1950    
  3.5990      3.0941      2.7093      2.4411      2.2678      2.1657      2.1186      2.1189      2.1664      2.2683    
  2.4408      2.7081      3.0928      3.5987      5.8660      7.5077      9.5724      11.335      12.030      11.335    
  9.5717      7.5072      5.8659      4.8170      3.9676      3.2707      2.7632      2.4277      2.2250      2.1186    
  2.0857      2.1188      2.2252      2.4278      2.7629      3.2702      3.9671      4.8167      11.348      16.503    
  21.495      24.572      24.572      21.495      16.503      11.348      7.5072      5.4198      4.2860      3.4094    
  2.7994      2.4208      2.2109      2.1189      2.1188      2.2107      2.4206      2.7995      3.4098      4.2864    
  5.4198      7.5071      26.296      36.722      44.733      47.740      44.733      36.721      26.294      16.503    
  9.5717      6.0107      4.5031      3.4864      2.8120      2.4203      2.2249      2.1664      2.2252      2.4206    
  2.8121      3.4863      4.5029      6.0105      9.5719      16.503      54.354      70.039      79.300      79.299    
  70.037      54.352      36.721      21.495      11.335      6.4041      4.5802      3.4868      2.7992      2.4268    
  2.2678      2.2683      2.4278      2.7995      3.4863      4.5798      6.4040      11.335      21.495      36.722    
  95.282      114.06      121.01      114.06      95.283      70.037      44.733      24.572      12.030      6.4038    
  4.5029      3.4099      2.7630      2.4408      2.3441      2.4408      2.7629      3.4098      4.5029      6.4040    
  12.030      24.572      44.733      70.037      144.25      161.92      161.92      144.26      114.06      79.299    
  47.740      24.572      11.335      6.0103      4.2857      3.2705      2.7093      2.4667      2.4660      2.7081    
  3.2702      4.2864      6.0105      11.335      24.572      47.741      79.300      114.05      192.18      203.38    
  192.18      161.92      121.01      79.300      44.733      21.495      9.5724      5.4201      3.9674      3.0929    
  2.6501      2.5163      2.6501      3.0928      3.9671      5.4198      9.5719      21.495      44.733      79.300    
  121.01      161.92      227.65      227.65      203.38      161.92      114.06      70.039      36.722      16.503    
  7.5077      4.8181      3.5989      2.9056      2.6028      2.6037      2.9070      3.5987      4.8167      7.5071    
  16.503      36.722      70.037      114.05      161.92      203.39      227.65      203.39      161.92      114.05    
  70.037      36.722      16.503      7.5071      4.8167      3.5986      2.9070      2.6038      2.6028      2.9056    
  3.5989      4.8181      7.5077      16.503      36.722      70.039      114.06      161.92      203.38      227.65    
  203.39      171.44      128.28      84.263      47.700      22.965      10.112      5.5599      4.0453      3.1422    
  2.6833      2.5444      2.6833      3.1423      4.0454      5.5596      10.112      22.967      47.703      84.266    
  128.28      171.44      203.38      215.21      161.92      128.28      89.544      54.240      28.056      12.779    
  6.4210      4.4616      3.3814      2.7792      2.5190      2.5197      2.7806      3.3817      4.4605      6.4202    
  12.780      28.058      54.241      89.543      128.28      161.92      181.62      181.62      114.05      84.263    
  54.240      29.989      14.476      7.1806      4.7819      3.5887      2.8742      2.5169      2.4094      2.5170    
  2.8747      3.5894      4.7820      7.1799      14.475      29.988      54.240      84.264      114.06      136.18    
  144.38      136.18      70.037      47.700      28.056      14.476      7.4892      4.9591      3.7304      2.9474    
  2.5229      2.3410      2.3405      2.5223      2.9479      3.7313      4.9587      7.4874      14.474      28.056    
  47.701      70.037      89.746      101.35      101.35      89.746      36.722      22.965      12.779      7.1806    
  4.9591      3.7820      2.9882      2.5274      2.2990      2.2307      2.2990      2.5273      2.9879      3.7815    
  4.9588      7.1809      12.779      22.965      36.720      51.009      61.854      65.906      61.855      51.011    
  16.503      10.112      6.4210      4.7819      3.7304      2.9882      2.5295      2.2784      2.1696      2.1698    
  2.2786      2.5294      2.9879      3.7305      4.7823      6.4210      10.111      16.502      24.606      32.197    
  36.797      36.797      32.197      24.607      7.5071      5.5599      4.4616      3.5887      2.9474      2.5274    
  2.2784      2.1501      2.1108      2.1500      2.2786      2.5281      2.9480      3.5887      4.4609      5.5592    
  7.5071      10.707      14.518      17.641      18.848      17.641      14.517      10.707      4.8167      4.0453    
  3.3814      2.8742      2.5229      2.2990      2.1696      2.1108      2.1106      2.1693      2.2989      2.5232    
  2.8748      3.3821      4.0458      4.8169      5.7000      6.9046      8.2074      9.0698      9.0699      8.2075    
  6.9047      5.7000      3.5986      3.1422      2.7792      2.5169      2.3410      2.2307      2.1698      2.1500    
  2.1693      2.2299      2.3404      2.5172      2.7806      3.1436      3.5990      4.1116      4.6202      5.0562    
  5.3811      5.5083      5.3810      5.0566      4.6213      4.1124      2.9070      2.6833      2.5190      2.4094    
  2.3405      2.2990      2.2786      2.2786      2.2989      2.3404      2.4092      2.5187      2.6831      2.9069    
  3.1784      3.4708      3.7468      3.9644      4.0850      4.0849      3.9642      3.7466      3.4708      3.1785    
  2.6038      2.5444      2.5197      2.5170      2.5223      2.5273      2.5294      2.5281      2.5232      2.5172    
  2.5187      2.5426      2.6025      2.7004      2.8247      2.9547      3.0684      3.1464      3.1745      3.1467    
  3.0682      2.9537      2.8236      2.7004      2.6028      2.6833      2.7806      2.8747      2.9479      2.9879    
  2.9879      2.9480      2.8748      2.7806      2.6831      2.6025      2.5545      2.5423      2.5558      2.5790    
  2.5990      2.6097      2.6096      2.5988      2.5789      2.5559      2.5425      2.5548      2.9056      3.1423    
  3.3817      3.5894      3.7313      3.7815      3.7305      3.5887      3.3821      3.1436      2.9069      2.7004    
  2.5423      2.4350      2.3681      2.3273      2.3036      2.2953      2.3030      2.3268      2.3686      2.4363    
  2.5433      2.7003      3.5989      4.0454      4.4605      4.7820      4.9587      4.9588      4.7823      4.4609    
  4.0458      3.5990      3.1784      2.8247      2.5558      2.3681      2.2456      2.1716      2.1362      2.1361    
  2.1714      2.2454      2.3680      2.5558      2.8248      3.1785      4.8181      5.5596      6.4202      7.1799    
  7.4874      7.1809      6.4210      5.5592      4.8169      4.1116      3.4708      2.9547      2.5790      2.3273    
  2.1716      2.0877      2.0614      2.0881      2.1720      2.3270      2.5779      2.9535      3.4705      4.1125    
  7.5077      10.112      12.780      14.475      14.474      12.779      10.111      7.5071      5.7000      4.6202    
  3.7468      3.0684      2.5990      2.3036      2.1362      2.0614      2.0614      2.1363      2.3039      2.5992    
  3.0682      3.7463      4.6197      5.7000      16.503      22.967      28.058      29.988      28.056      22.965    
  16.502      10.707      6.9046      5.0562      3.9644      3.1464      2.6097      2.2953      2.1361      2.0881    
  2.1363      2.2954      2.6099      3.1469      3.9651      5.0563      6.9038      10.707      36.722      47.703    
  54.241      54.240      47.701      36.720      24.606      14.518      8.2074      5.3811      4.0850      3.1745    
  2.6096      2.3030      2.1714      2.1720      2.3039      2.6099      3.1741      4.0847      5.3812      8.2074    
  14.518      24.607      70.039      84.266      89.543      84.264      70.037      51.009      32.197      17.641    
  9.0698      5.5083      4.0849      3.1467      2.5988      2.3268      2.2454      2.3270      2.5992      3.1469    
  4.0847      5.5074      9.0687      17.641      32.198      51.011      114.06      128.28      128.28      114.06    
  89.746      61.854      36.797      18.848      9.0699      5.3810      3.9642      3.0682      2.5789      2.3686    
  2.3680      2.5779      3.0682      3.9651      5.3812      9.0687      18.847      36.797      61.855      89.746    
  161.92      171.44      161.92      136.18      101.35      65.906      36.797      17.641      8.2075      5.0566    
  3.7466      2.9537      2.5559      2.4363      2.5558      2.9535      3.7463      5.0563      8.2074      17.641    
  36.797      65.905      101.35      136.18      203.38      203.38      181.62      144.38      101.35      61.855    
  32.197      14.517      6.9047      4.6213      3.4708      2.8236      2.5425      2.5433      2.8248      3.4705    
  4.6197      6.9038      14.518      32.198      61.855      101.35      144.38      181.62      227.65      215.21    
  181.62      136.18      89.746      51.011      24.607      10.707      5.7000      4.1124      3.1785      2.7004    
  2.5548      2.7003      3.1785      4.1125      5.7000      10.707      24.607      51.011      89.746      136.18    
  181.62      215.21      192.18      161.92      121.01      79.300      44.733      21.495      9.5721      5.4199    
  3.9670      3.0927      2.6501      2.5164      2.6500      3.0928      3.9674      5.4202      9.5723      21.495    
  44.733      79.301      121.01      161.92      192.18      203.38      161.92      128.28      89.544      54.240    
  28.056      12.779      6.4211      4.4616      3.3814      2.7792      2.5190      2.5198      2.7806      3.3817    
  4.4605      6.4203      12.780      28.058      54.241      89.543      128.28      161.92      181.62      181.62    
  121.01      89.544      57.788      32.036      15.423      7.4914      4.8799      3.6526      2.9138      2.5437    
  2.4323      2.5439      2.9143      3.6530      4.8798      7.4908      15.422      32.036      57.788      89.544    
  121.01      144.38      153.03      144.38      79.300      54.240      32.036      16.448      8.2034      5.1713    
  3.8645      3.0293      2.5750      2.3803      2.3799      2.5746      3.0300      3.8658      5.1714      8.2014    
  16.445      32.034      54.240      79.302      101.35      114.31      114.31      101.35      44.733      28.056    
  15.423      8.2034      5.2826      3.9833      3.1085      2.5998      2.3483      2.2734      2.3485      2.6002    
  3.1087      3.9829      5.2817      8.2023      15.422      28.055      44.733      61.855      74.782      79.601    
  74.781      61.855      21.495      12.779      7.4914      5.1713      3.9833      3.1378      2.6144      2.3299    
  2.2077      2.2081      2.3305      2.6142      3.1367      3.9825      5.1717      7.4926      12.779      21.494    
  32.196      42.048      47.968      47.968      42.049      32.198      9.5721      6.4211      4.8799      3.8645    
  3.1085      2.6144      2.3244      2.1767      2.1317      2.1766      2.3243      2.6145      3.1088      3.8648    
  4.8803      6.4212      9.5720      14.518      20.163      24.677      26.403      24.677      20.163      14.518    
  5.4199      4.4616      3.6526      3.0293      2.5998      2.3299      2.1767      2.1079      2.1077      2.1765    
  2.3304      2.6009      3.0301      3.6525      4.4609      5.4196      6.9046      9.0769      11.351      12.816    
  12.816      11.350      9.0757      6.9039      3.9670      3.3814      2.9138      2.5750      2.3483      2.2077    
  2.1317      2.1077      2.1316      2.2076      2.3483      2.5753      2.9144      3.3821      3.9677      4.6200    
  5.2771      5.9899      6.6164      6.8710      6.6165      5.9900      5.2770      4.6197      3.0927      2.7792    
  2.5437      2.3803      2.2734      2.2081      2.1766      2.1765      2.2076      2.2724      2.3795      2.5439    
  2.7805      3.0941      3.4708      3.8756      4.2562      4.5538      4.7174      4.7176      4.5545      4.2572    
  3.8763      3.4704      2.6501      2.5190      2.4323      2.3799      2.3485      2.3305      2.3243      2.3304    
  2.3483      2.3795      2.4319      2.5186      2.6498      2.8247      3.0287      3.2375      3.4210      3.5480    
  3.5937      3.5480      3.4209      3.2374      3.0288      2.8249      2.5164      2.5198      2.5439      2.5746    
  2.6002      2.6142      2.6145      2.6009      2.5753      2.5439      2.5186      2.5146      2.5423      2.5998    
  2.6746      2.7497      2.8096      2.8429      2.8429      2.8093      2.7488      2.6737      2.5997      2.5434    
  2.6500      2.7806      2.9143      3.0300      3.1087      3.1367      3.1088      3.0301      2.9144      2.7805    
  2.6498      2.5423      2.4696      2.4310      2.4152      2.4099      2.4076      2.4067      2.4074      2.4097    
  2.4151      2.4310      2.4698      2.5425      3.0928      3.3817      3.6530      3.8658      3.9829      3.9825    
  3.8648      3.6525      3.3821      3.0941      2.8247      2.5998      2.4310      2.3146      2.2384      2.1909    
  2.1671      2.1668      2.1904      2.2385      2.3153      2.4316      2.5996      2.8235      3.9674      4.4605    
  4.8798      5.1714      5.2817      5.1717      4.8803      4.4609      3.9677      3.4708      3.0287      2.6746    
  2.4152      2.2384      2.1258      2.0627      2.0422      2.0625      2.1254      2.2381      2.4151      2.6746    
  3.0288      3.4708      5.4202      6.4203      7.4908      8.2014      8.2023      7.4926      6.4212      5.4196    
  4.6200      3.8756      3.2375      2.7497      2.4099      2.1909      2.0627      2.0038      2.0039      2.0628    
  2.1908      2.4092      2.7488      3.2372      3.8764      4.6214      9.5723      12.780      15.422      16.445    
  15.422      12.779      9.5720      6.9046      5.2771      4.2562      3.4210      2.8096      2.4076      2.1671    
  2.0422      2.0039      2.0424      2.1674      2.4079      2.8097      3.4208      4.2560      5.2770      6.9047    
  21.495      28.058      32.036      32.034      28.055      21.494      14.518      9.0769      5.9899      4.5538    
  3.5480      2.8429      2.4067      2.1668      2.0625      2.0628      2.1674      2.4071      2.8431      3.5486    
  4.5542      5.9894      9.0756      14.517      44.733      54.241      57.788      54.240      44.733      32.196    
  20.163      11.351      6.6164      4.7174      3.5937      2.8429      2.4074      2.1904      2.1254      2.1908    
  2.4079      2.8431      3.5936      4.7171      6.6161      11.351      20.163      32.197      79.301      89.543    
  89.544      79.302      61.855      42.048      24.677      12.816      6.8710      4.7176      3.5480      2.8093    
  2.4097      2.2385      2.2381      2.4092      2.8097      3.5486      4.7171      6.8694      12.815      24.678    
  42.049      61.856      121.01      128.28      121.01      101.35      74.782      47.968      26.403      12.816    
  6.6165      4.5545      3.4209      2.7488      2.4151      2.3153      2.4151      2.7488      3.4208      4.5542    
  6.6161      12.815      26.402      47.967      74.781      101.35      161.92      161.92      144.38      114.31    
  79.601      47.968      24.677      11.350      5.9900      4.2572      3.2374      2.6737      2.4310      2.4316    
  2.6746      3.2372      4.2560      5.9894      11.351      24.678      47.967      79.599      114.31      144.38    
  192.18      181.62      153.03      114.31      74.781      42.049      20.163      9.0757      5.2770      3.8763    
  3.0288      2.5997      2.4698      2.5996      3.0288      3.8764      5.2770      9.0756      20.163      42.049    
  74.781      114.31      153.03      181.62      203.38      181.62      144.38      101.35      61.855      32.198    
  14.518      6.9039      4.6197      3.4704      2.8249      2.5434      2.5425      2.8235      3.4708      4.6214    
  6.9047      14.517      32.197      61.856      101.35      144.38      181.62      203.38      144.25      114.05    
  79.300      47.741      24.572      11.335      6.0107      4.2864      3.2701      2.7080      2.4661      2.4668    
  2.7092      3.2704      4.2858      6.0104      11.335      24.572      47.741      79.299      114.06      144.26    
  161.92      161.92      114.05      84.263      54.240      29.989      14.476      7.1807      4.7819      3.5888    
  2.8741      2.5168      2.4095      2.5171      2.8746      3.5893      4.7820      7.1799      14.475      29.988    
  54.240      84.264      114.06      136.18      144.38      136.18      79.300      54.240      32.036      16.448    
  8.2034      5.1713      3.8645      3.0292      2.5750      2.3803      2.3799      2.5746      3.0299      3.8658    
  5.1714      8.2014      16.445      32.034      54.240      79.302      101.35      114.31      114.31      101.35    
  47.741      29.989      16.448      8.6120      5.4050      4.0542      3.1514      2.6257      2.3657      2.2883    
  2.3661      2.6261      3.1518      4.0545      5.4047      8.6104      16.445      29.987      47.742      65.908    
  79.602      84.703      79.599      65.905      24.572      14.476      8.2034      5.4050      4.1219      3.2199    
  2.6610      2.3581      2.2283      2.2288      2.3589      2.6611      3.2193      4.1214      5.4049      8.2029    
  14.475      24.570      36.797      47.969      54.659      54.658      47.967      36.796      11.335      7.1807    
  5.1713      4.0542      3.2199      2.6738      2.3551      2.1941      2.1455      2.1943      2.3552      2.6734    
  3.2194      4.0540      5.1719      7.1817      11.335      17.640      24.677      30.235      32.349      30.236    
  24.678      17.641      6.0107      4.7819      3.8645      3.1514      2.6610      2.3551      2.1830      2.1065    
  2.1064      2.1828      2.3551      2.6613      3.1519      3.8650      4.7825      6.0113      8.2079      11.351    
  14.545      16.567      16.567      14.545      11.351      8.2075      4.2864      3.5888      3.0292      2.6257    
  2.3581      2.1941      2.1065      2.0790      2.1064      2.1942      2.3586      2.6266      3.0300      3.5889    
  4.2861      5.0563      5.9901      7.1563      8.1869      8.6012      8.1861      7.1552      5.9895      5.0564    
  3.2701      2.8741      2.5750      2.3657      2.2283      2.1455      2.1064      2.1064      2.1455      2.2282    
  2.3657      2.5752      2.8746      3.2708      3.7468      4.2562      4.7298      5.1051      5.3326      5.3327    
  5.1054      4.7298      4.2559      3.7462      2.7080      2.5168      2.3803      2.2883      2.2288      2.1943    
  2.1828      2.1942      2.2282      2.2873      2.3795      2.5170      2.7092      2.9546      3.2374      3.5269    
  3.7817      3.9580      4.0215      3.9589      3.7830      3.5276      3.2371      2.9534      2.4661      2.4095    
  2.3799      2.3661      2.3589      2.3552      2.3551      2.3586      2.3657      2.3795      2.4091      2.4658    
  2.5557      2.6746      2.8086      2.9386      3.0429      3.1015      3.1016      3.0430      2.9387      2.8087    
  2.6747      2.5559      2.4668      2.5171      2.5746      2.6261      2.6611      2.6734      2.6613      2.6266    
  2.5752      2.5170      2.4658      2.4349      2.4309      2.4497      2.4804      2.5110      2.5328      2.5406    
  2.5325      2.5103      2.4796      2.4495      2.4318      2.4364      2.7092      2.8746      3.0299      3.1518    
  3.2193      3.2194      3.1519      3.0300      2.8746      2.7092      2.5557      2.4309      2.3415      2.2836    
  2.2473      2.2246      2.2130      2.2128      2.2243      2.2470      2.2834      2.3415      2.4309      2.5558    
  3.2704      3.5893      3.8658      4.0545      4.1214      4.0540      3.8650      3.5889      3.2708      2.9546    
  2.6746      2.4497      2.2836      2.1681      2.0918      2.0471      2.0319      2.0467      2.0917      2.1684    
  2.2839      2.4494      2.6735      2.9536      4.2858      4.7820      5.1714      5.4047      5.4049      5.1719    
  4.7825      4.2861      3.7468      3.2374      2.8086      2.4804      2.2473      2.0918      1.9968      1.9513    
  1.9511      1.9964      2.0915      2.2471      2.4804      2.8087      3.2375      3.7467      6.0104      7.1799    
  8.2014      8.6104      8.2029      7.1817      6.0113      5.0563      4.2562      3.5269      2.9386      2.5110    
  2.2246      2.0471      1.9513      1.9212      1.9514      2.0470      2.2241      2.5105      2.9387      3.5278    
  4.2574      5.0568      11.335      14.475      16.445      16.445      14.475      11.335      8.2079      5.9901    
  4.7298      3.7817      3.0429      2.5328      2.2130      2.0319      1.9511      1.9514      2.0324      2.2134    
  2.5330      3.0430      3.7819      4.7299      5.9899      8.2075      24.572      29.988      32.034      29.987    
  24.570      17.640      11.351      7.1563      5.1051      3.9580      3.1015      2.5406      2.2128      2.0467    
  1.9964      2.0470      2.2134      2.5414      3.1022      3.9582      5.1045      7.1551      11.350      17.640    
  47.741      54.240      54.240      47.742      36.797      24.677      14.545      8.1869      5.3326      4.0215    
  3.1016      2.5325      2.2243      2.0917      2.0915      2.2241      2.5330      3.1022      4.0214      5.3317    
  8.1864      14.545      24.677      36.797      79.299      84.264      79.302      65.908      47.969      30.235    
  16.567      8.6012      5.3327      3.9589      3.0430      2.5103      2.2470      2.1684      2.2471      2.5105    
  3.0430      3.9582      5.3317      8.6011      16.568      30.236      47.968      65.906      114.06      114.06    
  101.35      79.602      54.659      32.349      16.567      8.1861      5.1054      3.7830      2.9387      2.4796    
  2.2834      2.2839      2.4804      2.9387      3.7819      5.1045      8.1864      16.568      32.350      54.658    
  79.601      101.35      144.26      136.18      114.31      84.703      54.658      30.236      14.545      7.1552    
  4.7298      3.5276      2.8087      2.4495      2.3415      2.4494      2.8087      3.5278      4.7299      7.1551    
  14.545      30.236      54.658      84.703      114.31      136.18      161.92      144.38      114.31      79.599    
  47.967      24.678      11.351      5.9895      4.2559      3.2371      2.6747      2.4318      2.4309      2.6735    
  3.2375      4.2574      5.9899      11.350      24.677      47.968      79.601      114.31      144.38      161.92    
  161.92      136.18      101.35      65.905      36.796      17.641      8.2075      5.0564      3.7462      2.9534    
  2.5559      2.4364      2.5558      2.9536      3.7467      5.0568      8.2075      17.640      36.797      65.906    
  101.35      136.18      161.92      171.44      95.282      70.037      44.733      24.572      12.030      6.4040    
  4.5030      3.4098      2.7628      2.4407      2.3442      2.4408      2.7629      3.4099      4.5030      6.4038    
  12.030      24.571      44.733      70.037      95.283      114.06      121.01      114.06      70.037      47.700    
  28.056      14.476      7.4892      4.9591      3.7305      2.9474      2.5228      2.3410      2.3406      2.5224    
  2.9478      3.7313      4.9588      7.4874      14.474      28.056      47.701      70.037      89.746      101.35    
  101.35      89.746      44.733      28.056      15.423      8.2034      5.2825      3.9833      3.1085      2.5997    
  2.3482      2.2734      2.3486      2.6001      3.1086      3.9829      5.2817      8.2023      15.422      28.055    
  44.733      61.855      74.782      79.601      74.781      61.855      24.572      14.476      8.2034      5.4049    
  4.1218      3.2199      2.6610      2.3581      2.2283      2.2289      2.3589      2.6610      3.2193      4.1214    
  5.4050      8.2029      14.475      24.570      36.797      47.969      54.659      54.658      47.967      36.797    
  12.030      7.4892      5.2825      4.1218      3.2592      2.6945      2.3660      2.2003      2.1504      2.2006    
  2.3661      2.6944      3.2589      4.1214      5.2821      7.4889      12.030      18.847      26.403      32.350    
  34.608      32.350      26.402      18.846      6.4040      4.9591      3.9833      3.2199      2.6945      2.3685    
  2.1863      2.1058      2.1058      2.1863      2.3685      2.6943      3.2193      3.9827      4.9593      6.4054    
  9.0703      12.815      16.567      18.925      18.925      16.568      12.815      9.0685      4.5030      3.7305    