fcc Cu                                  
   4.00000000000000     
     0.500000    0.500000    0.000000
     0.000000    0.500000    0.500000
     0.500000    0.000000    0.500000
   Cu
     1
Direct
  0.000000  0.000000  0.000000
 
   24   24   24
 0.24079260443E+03 0.22765316250E+03 0.19218294690E+03 0.14425346001E+03 0.95282379591E+02
 0.54353603263E+02 0.26295703264E+02 0.11348311870E+02 0.58659890453E+01 0.41957731123E+01
 0.32316030435E+01 0.27358633210E+01 0.25845970704E+01 0.27358633210E+01 0.32316030435E+01
 0.41957731123E+01 0.58659890453E+01 0.11348311870E+02 0.26295703264E+02 0.54353603263E+02
 0.95282379591E+02 0.14425346001E+03 0.19218294690E+03 0.22765316250E+03 0.22765316250E+03
 0.20338674524E+03 0.16192267443E+03 0.11405419388E+03 0.70036982293E+02 0.36721598398E+02
 0.16503310318E+02 0.75070667836E+01 0.48166525727E+01 0.35986850564E+01 0.29070284682E+01
 0.26037180979E+01 0.26027926286E+01 0.29056484217E+01 0.35989019033E+01 0.48180913123E+01
 0.75077046370E+01 0.16502871549E+02 0.36722118782E+02 0.70039379269E+02 0.11405605581E+03
 0.16192112002E+03 0.20338273544E+03 0.22765100174E+03 0.19218294690E+03 0.16192267443E+03
 0.12101042881E+03 0.79299731182E+02 0.44732608470E+02 0.21494675039E+02 0.95719499880E+01
 0.54197873263E+01 0.39670768157E+01 0.30927822235E+01 0.26500866532E+01 0.25163313996E+01
 0.26500741808E+01 0.30929013766E+01 0.39673592882E+01 0.54201328715E+01 0.95723613975E+01
 0.21495263561E+02 0.44733344000E+02 0.79300418786E+02 0.12101095730E+03 0.16192307463E+03
 0.19218319754E+03 0.20338273544E+03 0.14425346001E+03 0.11405419388E+03 0.79299731182E+02
 0.47741300730E+02 0.24571525989E+02 0.11334664499E+02 0.60105450931E+01 0.42863560105E+01
 0.32701700484E+01 0.27080837376E+01 0.24660123380E+01 0.24667259260E+01 0.27093147423E+01
 0.32704640490E+01 0.42857200644E+01 0.60102714720E+01 0.11335206512E+02 0.24571726871E+02
 0.47740453102E+02 0.79299379248E+02 0.11405635405E+03 0.14425728132E+03 0.16192307463E+03
 0.16192112002E+03 0.95282379591E+02 0.70036982293E+02 0.44732608470E+02 0.24571525989E+02
 0.12029835107E+02 0.64040245886E+01 0.45029003409E+01 0.34097650988E+01 0.27628757114E+01
 0.24407558503E+01 0.23440809357E+01 0.24407630540E+01 0.27630196064E+01 0.34099475515E+01
 0.45028596349E+01 0.64037757722E+01 0.12029657062E+02 0.24571516332E+02 0.44732641716E+02
 0.70037072664E+02 0.95282649320E+02 0.11405635405E+03 0.12101095730E+03 0.11405605581E+03
 0.54353603263E+02 0.36721598398E+02 0.21494675039E+02 0.11334664499E+02 0.64040245886E+01
 0.45797840623E+01 0.34863341819E+01 0.27994985839E+01 0.24277771030E+01 0.22683032724E+01
 0.22677644392E+01 0.24268493094E+01 0.27992463569E+01 0.34867714418E+01 0.45801558074E+01
 0.64040837684E+01 0.11334787815E+02 0.21494797656E+02 0.36720908923E+02 0.54351659460E+02
 0.70037072664E+02 0.79299379248E+02 0.79300418786E+02 0.70039379269E+02 0.26295703264E+02
 0.16503310318E+02 0.95719499880E+01 0.60105450931E+01 0.45029003409E+01 0.34863341819E+01
 0.28120790392E+01 0.24206448115E+01 0.22252062800E+01 0.21664451414E+01 0.22249162306E+01
 0.24203358442E+01 0.28119590350E+01 0.34864001406E+01 0.45030688575E+01 0.60106716028E+01
 0.95717402778E+01 0.16502509393E+02 0.26294447552E+02 0.36720908923E+02 0.44732641716E+02
 0.47740453102E+02 0.44733344000E+02 0.36722118782E+02 0.11348311870E+02 0.75070667836E+01
 0.54197873263E+01 0.42863560105E+01 0.34097650988E+01 0.27994985839E+01 0.24206448115E+01
 0.22106617568E+01 0.21187741914E+01 0.21188677982E+01 0.22108754363E+01 0.24207833946E+01
 0.27993613050E+01 0.34093870319E+01 0.42860407510E+01 0.54197712475E+01 0.75072157848E+01
 0.11348277177E+02 0.16502509393E+02 0.21494797656E+02 0.24571516332E+02 0.24571726871E+02
 0.21495263561E+02 0.16502871549E+02 0.58659890453E+01 0.48166525727E+01 0.39670768157E+01
 0.32701700484E+01 0.27628757114E+01 0.24277771030E+01 0.22252062800E+01 0.21187741914E+01
 0.20857123057E+01 0.21185540080E+01 0.22249624438E+01 0.24277394428E+01 0.27631516632E+01
 0.32706977035E+01 0.39676490431E+01 0.48169920084E+01 0.58658980083E+01 0.75072157848E+01
 0.95717402778E+01 0.11334787815E+02 0.12029657062E+02 0.11335206512E+02 0.95723613975E+01
 0.75077046370E+01 0.41957731123E+01 0.35986850564E+01 0.30927822235E+01 0.27080837376E+01
 0.24407558503E+01 0.22683032724E+01 0.21664451414E+01 0.21188677982E+01 0.21185540080E+01
 0.21657360016E+01 0.22678133000E+01 0.24411174224E+01 0.27093372297E+01 0.30941116333E+01
 0.35990470282E+01 0.41949574260E+01 0.48169920084E+01 0.54197712475E+01 0.60106716028E+01
 0.64040837684E+01 0.64037757722E+01 0.60102714720E+01 0.54201328715E+01 0.48180913123E+01
 0.32316030435E+01 0.29070284682E+01 0.26500866532E+01 0.24660123380E+01 0.23440809357E+01
 0.22677644392E+01 0.22249162306E+01 0.22108754363E+01 0.22249624438E+01 0.22678133000E+01
 0.23440710721E+01 0.24659080077E+01 0.26499141233E+01 0.29068749345E+01 0.32315711523E+01
 0.35990470282E+01 0.39676490431E+01 0.42860407510E+01 0.45030688575E+01 0.45801558074E+01
 0.45028596349E+01 0.42857200644E+01 0.39673592882E+01 0.35989019033E+01 0.27358633210E+01
 0.26037180979E+01 0.25163313996E+01 0.24667259260E+01 0.24407630540E+01 0.24268493094E+01
 0.24203358442E+01 0.24207833946E+01 0.24277394428E+01 0.24411174224E+01 0.24659080077E+01
 0.25147107876E+01 0.26024705426E+01 0.27359458030E+01 0.29068749345E+01 0.30941116333E+01
 0.32706977035E+01 0.34093870319E+01 0.34864001406E+01 0.34867714418E+01 0.34099475515E+01
 0.32704640490E+01 0.30929013766E+01 0.29056484217E+01 0.25845970704E+01 0.26027926286E+01
 0.26500741808E+01 0.27093147423E+01 0.27630196064E+01 0.27992463569E+01 0.28119590350E+01
 0.27993613050E+01 0.27631516632E+01 0.27093372297E+01 0.26499141233E+01 0.26024705426E+01
 0.25842113225E+01 0.26024705426E+01 0.26499141233E+01 0.27093372297E+01 0.27631516632E+01
 0.27993613050E+01 0.28119590350E+01 0.27992463569E+01 0.27630196064E+01 0.27093147423E+01
 0.26500741808E+01 0.26027926286E+01 0.27358633210E+01 0.29056484217E+01 0.30929013766E+01
 0.32704640490E+01 0.34099475515E+01 0.34867714418E+01 0.34864001406E+01 0.34093870319E+01
 0.32706977035E+01 0.30941116333E+01 0.29068749345E+01 0.27359458030E+01 0.26024705426E+01
 0.25147107876E+01 0.24659080077E+01 0.24411174224E+01 0.24277394428E+01 0.24207833946E+01
 0.24203358442E+01 0.24268493094E+01 0.24407630540E+01 0.24667259260E+01 0.25163313996E+01
 0.26037180979E+01 0.32316030435E+01 0.35989019033E+01 0.39673592882E+01 0.42857200644E+01
 0.45028596349E+01 0.45801558074E+01 0.45030688575E+01 0.42860407510E+01 0.39676490431E+01
 0.35990470282E+01 0.32315711523E+01 0.29068749345E+01 0.26499141233E+01 0.24659080077E+01
 0.23440710721E+01 0.22678133000E+01 0.22249624438E+01 0.22108754363E+01 0.22249162306E+01
 0.22677644392E+01 0.23440809357E+01 0.24660123380E+01 0.26500866532E+01 0.29070284682E+01
 0.41957731123E+01 0.48180913123E+01 0.54201328715E+01 0.60102714720E+01 0.64037757722E+01
 0.64040837684E+01 0.60106716028E+01 0.54197712475E+01 0.48169920084E+01 0.41949574260E+01
 0.35990470282E+01 0.30941116333E+01 0.27093372297E+01 0.24411174224E+01 0.22678133000E+01
 0.21657360016E+01 0.21185540080E+01 0.21188677982E+01 0.21664451414E+01 0.22683032724E+01
 0.24407558503E+01 0.27080837376E+01 0.30927822235E+01 0.35986850564E+01 0.58659890453E+01
 0.75077046370E+01 0.95723613975E+01 0.11335206512E+02 0.12029657062E+02 0.11334787815E+02
 0.95717402778E+01 0.75072157848E+01 0.58658980083E+01 0.48169920084E+01 0.39676490431E+01
 0.32706977035E+01 0.27631516632E+01 0.24277394428E+01 0.22249624438E+01 0.21185540080E+01
 0.20857123057E+01 0.21187741914E+01 0.22252062800E+01 0.24277771030E+01 0.27628757114E+01
 0.32701700484E+01 0.39670768157E+01 0.48166525727E+01 0.11348311870E+02 0.16502871549E+02
 0.21495263561E+02 0.24571726871E+02 0.24571516332E+02 0.21494797656E+02 0.16502509393E+02
 0.11348277177E+02 0.75072157848E+01 0.54197712475E+01 0.42860407510E+01 0.34093870319E+01
 0.27993613050E+01 0.24207833946E+01 0.22108754363E+01 0.21188677982E+01 0.21187741914E+01
 0.22106617568E+01 0.24206448115E+01 0.27994985839E+01 0.34097650988E+01 0.42863560105E+01
 0.54197873263E+01 0.75070667836E+01 0.26295703264E+02 0.36722118782E+02 0.44733344000E+02
 0.47740453102E+02 0.44732641716E+02 0.36720908923E+02 0.26294447552E+02 0.16502509393E+02
 0.95717402778E+01 0.60106716028E+01 0.45030688575E+01 0.34864001406E+01 0.28119590350E+01
 0.24203358442E+01 0.22249162306E+01 0.21664451414E+01 0.22252062800E+01 0.24206448115E+01
 0.28120790392E+01 0.34863341819E+01 0.45029003409E+01 0.60105450931E+01 0.95719499880E+01
 0.16503310318E+02 0.54353603263E+02 0.70039379269E+02 0.79300418786E+02 0.79299379248E+02
 0.70037072664E+02 0.54351659460E+02 0.36720908923E+02 0.21494797656E+02 0.11334787815E+02
 0.64040837684E+01 0.45801558074E+01 0.34867714418E+01 0.27992463569E+01 0.24268493094E+01
 0.22677644392E+01 0.22683032724E+01 0.24277771030E+01 0.27994985839E+01 0.34863341819E+01
 0.45797840623E+01 0.64040245886E+01 0.11334664499E+02 0.21494675039E+02 0.36721598398E+02
 0.95282379591E+02 0.11405605581E+03 0.12101095730E+03 0.11405635405E+03 0.95282649320E+02
 0.70037072664E+02 0.44732641716E+02 0.24571516332E+02 0.12029657062E+02 0.64037757722E+01
 0.45028596349E+01 0.34099475515E+01 0.27630196064E+01 0.24407630540E+01 0.23440809357E+01
 0.24407558503E+01 0.27628757114E+01 0.34097650988E+01 0.45029003409E+01 0.64040245886E+01
 0.12029835107E+02 0.24571525989E+02 0.44732608470E+02 0.70036982293E+02 0.14425346001E+03
 0.16192112002E+03 0.16192307463E+03 0.14425728132E+03 0.11405635405E+03 0.79299379248E+02
 0.47740453102E+02 0.24571726871E+02 0.11335206512E+02 0.60102714720E+01 0.42857200644E+01
 0.32704640490E+01 0.27093147423E+01 0.24667259260E+01 0.24660123380E+01 0.27080837376E+01
 0.32701700484E+01 0.42863560105E+01 0.60105450931E+01 0.11334664499E+02 0.24571525989E+02
 0.47741300730E+02 0.79299731182E+02 0.11405419388E+03 0.19218294690E+03 0.20338273544E+03
 0.19218319754E+03 0.16192307463E+03 0.12101095730E+03 0.79300418786E+02 0.44733344000E+02
 0.21495263561E+02 0.95723613975E+01 0.54201328715E+01 0.39673592882E+01 0.30929013766E+01
 0.26500741808E+01 0.25163313996E+01 0.26500866532E+01 0.30927822235E+01 0.39670768157E+01
 0.54197873263E+01 0.95719499880E+01 0.21494675039E+02 0.44732608470E+02 0.79299731182E+02
 0.12101042881E+03 0.16192267443E+03 0.22765316250E+03 0.22765100174E+03 0.20338273544E+03
 0.16192112002E+03 0.11405605581E+03 0.70039379269E+02 0.36722118782E+02 0.16502871549E+02
 0.75077046370E+01 0.48180913123E+01 0.35989019033E+01 0.29056484217E+01 0.26027926286E+01
 0.26037180979E+01 0.29070284682E+01 0.35986850564E+01 0.48166525727E+01 0.75070667836E+01
 0.16503310318E+02 0.36721598398E+02 0.70036982293E+02 0.11405419388E+03 0.16192267443E+03
 0.20338674524E+03 0.22765305954E+03 0.20338657802E+03 0.16192257645E+03 0.11405416822E+03
 0.70036943707E+02 0.36721562484E+02 0.16503350253E+02 0.75071381693E+01 0.48166545582E+01
 0.35986466005E+01 0.29070479880E+01 0.26037713278E+01 0.26027864361E+01 0.29056094283E+01
 0.35989226009E+01 0.48181438359E+01 0.75076983897E+01 0.16502842697E+02 0.36722172264E+02
 0.70039492600E+02 0.11405612534E+03 0.16192114735E+03 0.20338278225E+03 0.22765101904E+03
 0.20338657802E+03 0.17144274743E+03 0.12827881335E+03 0.84263010047E+02 0.47699771796E+02
 0.22964985628E+02 0.10111862591E+02 0.55598506080E+01 0.40453126198E+01 0.31421615980E+01
 0.26833299099E+01 0.25444283593E+01 0.26832551714E+01 0.31422849750E+01 0.40454209342E+01
 0.55595776899E+01 0.10111924465E+02 0.22966830211E+02 0.47703301880E+02 0.84265582611E+02
 0.12827764192E+03 0.17143823033E+03 0.20338248554E+03 0.21521368326E+03 0.16192257645E+03
 0.12827881335E+03 0.89543725301E+02 0.54239793818E+02 0.28055539102E+02 0.12778709190E+02
 0.64209892271E+01 0.44615679142E+01 0.33814309693E+01 0.27792344677E+01 0.25189527567E+01
 0.25197339529E+01 0.27805981430E+01 0.33816718847E+01 0.44604776617E+01 0.64202495201E+01
 0.12779752700E+02 0.28057599260E+02 0.54240885540E+02 0.89543230417E+02 0.12827797214E+03
 0.16192241657E+03 0.18161711097E+03 0.18161699062E+03 0.11405416822E+03 0.84263010047E+02
 0.54239793818E+02 0.29989101310E+02 0.14475893670E+02 0.71806476054E+01 0.47818624994E+01
 0.35887366313E+01 0.28741873429E+01 0.25168680628E+01 0.24094145116E+01 0.25170159178E+01
 0.28746893883E+01 0.35893658442E+01 0.47819513269E+01 0.71798666407E+01 0.14474627983E+02
 0.29988071488E+02 0.54239696721E+02 0.84264294338E+02 0.11405647396E+03 0.13618135464E+03
 0.14437695126E+03 0.13617946601E+03 0.70036943707E+02 0.47699771796E+02 0.28055539102E+02
 0.14475893670E+02 0.74892303298E+01 0.49590961197E+01 0.37304343898E+01 0.29474377380E+01
 0.25229186789E+01 0.23410150297E+01 0.23405281258E+01 0.25223488420E+01 0.29479259547E+01
 0.37313063963E+01 0.49586958071E+01 0.74874191174E+01 0.14474380690E+02 0.28055615288E+02
 0.47700786957E+02 0.70037450367E+02 0.89745790801E+02 0.10134732801E+03 0.10134764139E+03
 0.89746133561E+02 0.36721562484E+02 0.22964985628E+02 0.12778709190E+02 0.71806476054E+01
 0.49590961197E+01 0.37820023335E+01 0.29881806955E+01 0.25274461979E+01 0.22990021685E+01
 0.22307486415E+01 0.22989648161E+01 0.25273293430E+01 0.29878665905E+01 0.37815243703E+01
 0.49588218660E+01 0.71808702019E+01 0.12779070353E+02 0.22964698996E+02 0.36720308615E+02
 0.51009061776E+02 0.61854236968E+02 0.65905829594E+02 0.61855375786E+02 0.51010724181E+02
 0.16503350253E+02 0.10111862591E+02 0.64209892271E+01 0.47818624994E+01 0.37304343898E+01
 0.29881806955E+01 0.25294890165E+01 0.22783790793E+01 0.21696177891E+01 0.21697650986E+01
 0.22785669640E+01 0.25293674175E+01 0.29879122122E+01 0.37305113858E+01 0.47822847118E+01
 0.64210487957E+01 0.10111067057E+02 0.16502259081E+02 0.24606320854E+02 0.32197287079E+02
 0.36796881711E+02 0.36796529586E+02 0.32196836807E+02 0.24606697683E+02 0.75071381693E+01
 0.55598506080E+01 0.44615679142E+01 0.35887366313E+01 0.29474377380E+01 0.25274461979E+01
 0.22783790793E+01 0.21501022782E+01 0.21107529466E+01 0.21499872592E+01 0.22785556297E+01
 0.25280682854E+01 0.29480386199E+01 0.35887084139E+01 0.44608926950E+01 0.55591734423E+01
 0.75071295115E+01 0.10707488840E+02 0.14518149134E+02 0.17641331683E+02 0.18848085341E+02
 0.17640611430E+02 0.14517097904E+02 0.10706730296E+02 0.48166545582E+01 0.40453126198E+01
 0.33814309693E+01 0.28741873429E+01 0.25229186789E+01 0.22990021685E+01 0.21696177891E+01
 0.21107529466E+01 0.21105901094E+01 0.21693073302E+01 0.22989025438E+01 0.25232292444E+01
 0.28747933963E+01 0.33820534732E+01 0.40457519269E+01 0.48168744560E+01 0.57000332997E+01
 0.69046416515E+01 0.82074333378E+01 0.90698351052E+01 0.90698871146E+01 0.82075419028E+01
 0.69047109276E+01 0.56999864103E+01 0.35986466005E+01 0.31421615980E+01 0.27792344677E+01
 0.25168680628E+01 0.23410150297E+01 0.22307486415E+01 0.21697650986E+01 0.21499872592E+01
 0.21693073302E+01 0.22299302945E+01 0.23403677153E+01 0.25171595878E+01 0.27805877193E+01
 0.31436251334E+01 0.35990496117E+01 0.41115677415E+01 0.46202371670E+01 0.50562395042E+01
 0.53810602673E+01 0.55082580541E+01 0.53809710397E+01 0.50566486225E+01 0.46212706989E+01
 0.41123642243E+01 0.29070479880E+01 0.26833299099E+01 0.25189527567E+01 0.24094145116E+01
 0.23405281258E+01 0.22989648161E+01 0.22785669640E+01 0.22785556297E+01 0.22989025438E+01
 0.23403677153E+01 0.24091551199E+01 0.25186535886E+01 0.26830648546E+01 0.29068669492E+01
 0.31784116591E+01 0.34708309650E+01 0.37468232358E+01 0.39643898232E+01 0.40850072018E+01
 0.40849152445E+01 0.39641792580E+01 0.37466307849E+01 0.34707567703E+01 0.31784765397E+01
 0.26037713278E+01 0.25444283593E+01 0.25197339529E+01 0.25170159178E+01 0.25223488420E+01
 0.25273293430E+01 0.25293674175E+01 0.25280682854E+01 0.25232292444E+01 0.25171595878E+01
 0.25186535886E+01 0.25426153000E+01 0.26024543861E+01 0.27004474820E+01 0.28247179134E+01
 0.29546744082E+01 0.30683620449E+01 0.31464299211E+01 0.31744952910E+01 0.31466876376E+01
 0.30681737755E+01 0.29536847526E+01 0.28236268490E+01 0.27003936384E+01 0.26027864361E+01
 0.26832551714E+01 0.27805981430E+01 0.28746893883E+01 0.29479259547E+01 0.29878665905E+01
 0.29879122122E+01 0.29480386199E+01 0.28747933963E+01 0.27805877193E+01 0.26830648546E+01
 0.26024543861E+01 0.25544507924E+01 0.25423022341E+01 0.25558162394E+01 0.25789627726E+01
 0.25989605950E+01 0.26097065371E+01 0.26096367551E+01 0.25988066446E+01 0.25788504417E+01
 0.25558574167E+01 0.25425294186E+01 0.25547977587E+01 0.29056094283E+01 0.31422849750E+01
 0.33816718847E+01 0.35893658442E+01 0.37313063963E+01 0.37815243703E+01 0.37305113858E+01
 0.35887084139E+01 0.33820534732E+01 0.31436251334E+01 0.29068669492E+01 0.27004474820E+01
 0.25423022341E+01 0.24350309842E+01 0.23681220818E+01 0.23273000976E+01 0.23036284707E+01
 0.22952583766E+01 0.23029543097E+01 0.23267877443E+01 0.23685536162E+01 0.24362641597E+01
 0.25433186591E+01 0.27003013079E+01 0.35989226009E+01 0.40454209342E+01 0.44604776617E+01
 0.47819513269E+01 0.49586958071E+01 0.49588218660E+01 0.47822847118E+01 0.44608926950E+01
 0.40457519269E+01 0.35990496117E+01 0.31784116591E+01 0.28247179134E+01 0.25558162394E+01
 0.23681220818E+01 0.22456087670E+01 0.21715913809E+01 0.21361797726E+01 0.21361155260E+01
 0.21714140757E+01 0.22453842766E+01 0.23679674573E+01 0.25558169589E+01 0.28248300891E+01
 0.31784761972E+01 0.48181438359E+01 0.55595776899E+01 0.64202495201E+01 0.71798666407E+01
 0.74874191174E+01 0.71808702019E+01 0.64210487957E+01 0.55591734423E+01 0.48168744560E+01
 0.41115677415E+01 0.34708309650E+01 0.29546744082E+01 0.25789627726E+01 0.23273000976E+01
 0.21715913809E+01 0.20876912603E+01 0.20613964297E+01 0.20881106730E+01 0.21719599585E+01
 0.23270355312E+01 0.25779340680E+01 0.29535159366E+01 0.34705208202E+01 0.41124522338E+01
 0.75076983897E+01 0.10111924465E+02 0.12779752700E+02 0.14474627983E+02 0.14474380690E+02
 0.12779070353E+02 0.10111067057E+02 0.75071295115E+01 0.57000332997E+01 0.46202371670E+01
 0.37468232358E+01 0.30683620449E+01 0.25989605950E+01 0.23036284707E+01 0.21361797726E+01
 0.20613964297E+01 0.20614270023E+01 0.21363190196E+01 0.23038974787E+01 0.25991775727E+01
 0.30682336521E+01 0.37462977561E+01 0.46196919075E+01 0.56999750066E+01 0.16502842697E+02
 0.22966830211E+02 0.28057599260E+02 0.29988071488E+02 0.28055615288E+02 0.22964698996E+02
 0.16502259081E+02 0.10707488840E+02 0.69046416515E+01 0.50562395042E+01 0.39643898232E+01
 0.31464299211E+01 0.26097065371E+01 0.22952583766E+01 0.21361155260E+01 0.20881106730E+01
 0.21363190196E+01 0.22954299524E+01 0.26098970808E+01 0.31469429887E+01 0.39650590454E+01
 0.50562954180E+01 0.69037564912E+01 0.10706626686E+02 0.36722172264E+02 0.47703301880E+02
 0.54240885540E+02 0.54239696721E+02 0.47700786957E+02 0.36720308615E+02 0.24606320854E+02
 0.14518149134E+02 0.82074333378E+01 0.53810602673E+01 0.40850072018E+01 0.31744952910E+01
 0.26096367551E+01 0.23029543097E+01 0.21714140757E+01 0.21719599585E+01 0.23038974787E+01
 0.26098970808E+01 0.31740734640E+01 0.40847306056E+01 0.53811855967E+01 0.82074057216E+01
 0.14517852526E+02 0.24606706467E+02 0.70039492600E+02 0.84265582611E+02 0.89543230417E+02
 0.84264294338E+02 0.70037450367E+02 0.51009061776E+02 0.32197287079E+02 0.17641331683E+02
 0.90698351052E+01 0.55082580541E+01 0.40849152445E+01 0.31466876376E+01 0.25988066446E+01
 0.23267877443E+01 0.22453842766E+01 0.23270355312E+01 0.25991775727E+01 0.31469429887E+01
 0.40847306056E+01 0.55074376534E+01 0.90686931083E+01 0.17640721488E+02 0.32197943464E+02
 0.51010867521E+02 0.11405612534E+03 0.12827764192E+03 0.12827797214E+03 0.11405647396E+03
 0.89745790801E+02 0.61854236968E+02 0.36796881711E+02 0.18848085341E+02 0.90698871146E+01
 0.53809710397E+01 0.39641792580E+01 0.30681737755E+01 0.25788504417E+01 0.23685536162E+01
 0.23679674573E+01 0.25779340680E+01 0.30682336521E+01 0.39650590454E+01 0.53811855967E+01
 0.90686931083E+01 0.18846572835E+02 0.36796515134E+02 0.61854927983E+02 0.89746236347E+02
 0.16192114735E+03 0.17143823033E+03 0.16192241657E+03 0.13618135464E+03 0.10134732801E+03
 0.65905829594E+02 0.36796529586E+02 0.17640611430E+02 0.82075419028E+01 0.50566486225E+01
 0.37466307849E+01 0.29536847526E+01 0.25558574167E+01 0.24362641597E+01 0.25558169589E+01
 0.29535159366E+01 0.37462977561E+01 0.50562954180E+01 0.82074057216E+01 0.17640721488E+02
 0.36796515134E+02 0.65905155888E+02 0.10134582381E+03 0.13617951483E+03 0.20338278225E+03
 0.20338248554E+03 0.18161711097E+03 0.14437695126E+03 0.10134764139E+03 0.61855375786E+02
 0.32196836807E+02 0.14517097904E+02 0.69047109276E+01 0.46212706989E+01 0.34707567703E+01
 0.28236268490E+01 0.25425294186E+01 0.25433186591E+01 0.28248300891E+01 0.34705208202E+01
 0.46196919075E+01 0.69037564912E+01 0.14517852526E+02 0.32197943464E+02 0.61854927983E+02
 0.10134582381E+03 0.14437563196E+03 0.18161713173E+03 0.22765101904E+03 0.21521368326E+03
 0.18161699062E+03 0.13617946601E+03 0.89746133561E+02 0.51010724181E+02 0.24606697683E+02
 0.10706730296E+02 0.56999864103E+01 0.41123642243E+01 0.31784765397E+01 0.27003936384E+01
 0.25547977587E+01 0.27003013079E+01 0.31784761972E+01 0.41124522338E+01 0.56999750066E+01
 0.10706626686E+02 0.24606706467E+02 0.51010867521E+02 0.89746236347E+02 0.13617951483E+03
 0.18161713173E+03 0.21521386513E+03 0.19218272144E+03 0.16192244826E+03 0.12101039606E+03
 0.79299805328E+02 0.44732615239E+02 0.21494673048E+02 0.95720603170E+01 0.54199023300E+01
 0.39670494645E+01 0.30927186080E+01 0.26501457604E+01 0.25164201065E+01 0.26500406468E+01
 0.30928398378E+01 0.39674203566E+01 0.54202235297E+01 0.95723383612E+01 0.21495232995E+02
 0.44733461192E+02 0.79300575753E+02 0.12101097207E+03 0.16192300492E+03 0.19218317043E+03
 0.20338266355E+03 0.16192244826E+03 0.12827874770E+03 0.89543784770E+02 0.54239889407E+02
 0.28055580892E+02 0.12778740314E+02 0.64210587230E+01 0.44616123350E+01 0.33814026909E+01
 0.27792104477E+01 0.25189946761E+01 0.25197728785E+01 0.27805740824E+01 0.33816523978E+01
 0.44605220228E+01 0.64202924608E+01 0.12779740120E+02 0.28057600882E+02 0.54240952560E+02
 0.89543276890E+02 0.12827791808E+03 0.16192231780E+03 0.18161703408E+03 0.18161689745E+03
 0.12101039606E+03 0.89543784770E+02 0.57787857440E+02 0.32035977924E+02 0.15422762053E+02
 0.74914482794E+01 0.48799069298E+01 0.36526043899E+01 0.29137950432E+01 0.25436539268E+01
 0.24323346530E+01 0.25439045116E+01 0.29143084961E+01 0.36530478338E+01 0.48798121183E+01
 0.74908487908E+01 0.15422159936E+02 0.32035686752E+02 0.57787843493E+02 0.89544064765E+02
 0.12101100351E+03 0.14437613433E+03 0.15303301607E+03 0.14437556230E+03 0.79299805328E+02
 0.54239889407E+02 0.32035977924E+02 0.16447831881E+02 0.82034081859E+01 0.51713355199E+01
 0.38644506046E+01 0.30292536351E+01 0.25750469113E+01 0.23803042880E+01 0.23798722060E+01
 0.25746112251E+01 0.30299787879E+01 0.38657579572E+01 0.51713831360E+01 0.82014240938E+01
 0.16445095750E+02 0.32034437780E+02 0.54240401652E+02 0.79301746395E+02 0.10134787849E+03
 0.11431349153E+03 0.11431266463E+03 0.10134587989E+03 0.44732615239E+02 0.28055580892E+02
 0.15422762053E+02 0.82034081859E+01 0.52826305588E+01 0.39833285423E+01 0.31085246010E+01
 0.25997780523E+01 0.23482944264E+01 0.22733883417E+01 0.23485431880E+01 0.26001681804E+01
 0.31087066845E+01 0.39829219402E+01 0.52816579900E+01 0.82022985735E+01 0.15421915090E+02
 0.28055146246E+02 0.44732620331E+02 0.61855230577E+02 0.74781696894E+02 0.79600718190E+02
 0.74781330206E+02 0.61854876172E+02 0.21494673048E+02 0.12778740314E+02 0.74914482794E+01
 0.51713355199E+01 0.39833285423E+01 0.31377960797E+01 0.26144081641E+01 0.23298983646E+01
 0.22077107164E+01 0.22081216490E+01 0.23305178200E+01 0.26142051684E+01 0.31367190880E+01
 0.39824884884E+01 0.51716874575E+01 0.74926009540E+01 0.12779362863E+02 0.21493938454E+02
 0.32196162031E+02 0.42047557652E+02 0.47967771262E+02 0.47968376723E+02 0.42049109853E+02
 0.32197839759E+02 0.95720603170E+01 0.64210587230E+01 0.48799069298E+01 0.38644506046E+01
 0.31085246010E+01 0.26144081641E+01 0.23243730497E+01 0.21766540406E+01 0.21317142381E+01
 0.21765849810E+01 0.23243181204E+01 0.26144847258E+01 0.31087913910E+01 0.38648417135E+01
 0.48802684278E+01 0.64212497921E+01 0.95720173132E+01 0.14517664738E+02 0.20162678018E+02
 0.24677027642E+02 0.26402817733E+02 0.24677276796E+02 0.20163022796E+02 0.14517917415E+02
 0.54199023300E+01 0.44616123350E+01 0.36526043899E+01 0.30292536351E+01 0.25997780523E+01
 0.23298983646E+01 0.21766540406E+01 0.21078781636E+01 0.21076664931E+01 0.21764506500E+01
 0.23303930729E+01 0.26009000690E+01 0.30301061172E+01 0.36525046478E+01 0.44609320637E+01
 0.54196412702E+01 0.69045735279E+01 0.90769090395E+01 0.11351132939E+02 0.12815922512E+02
 0.12815560149E+02 0.11350140746E+02 0.90757128581E+01 0.69039046007E+01 0.39670494645E+01
 0.33814026909E+01 0.29137950432E+01 0.25750469113E+01 0.23482944264E+01 0.22077107164E+01
 0.21317142381E+01 0.21076664931E+01 0.21316084259E+01 0.22075780247E+01 0.23483009545E+01
 0.25753499738E+01 0.29143907184E+01 0.33821093249E+01 0.39676514070E+01 0.46200466522E+01
 0.52771465260E+01 0.59899022978E+01 0.66164373512E+01 0.68710385623E+01 0.66165313271E+01
 0.59899607872E+01 0.52770253505E+01 0.46196749565E+01 0.30927186080E+01 0.27792104477E+01
 0.25436539268E+01 0.23803042880E+01 0.22733883417E+01 0.22081216490E+01 0.21765849810E+01
 0.21764506500E+01 0.22075780247E+01 0.22724212406E+01 0.23795306049E+01 0.25439023752E+01
 0.27805224848E+01 0.30941110833E+01 0.34708277712E+01 0.38755993348E+01 0.42562039859E+01
 0.45537929528E+01 0.47174038217E+01 0.47176291650E+01 0.45545090659E+01 0.42572399174E+01
 0.38762703979E+01 0.34704089107E+01 0.26501457604E+01 0.25189946761E+01 0.24323346530E+01
 0.23798722060E+01 0.23485431880E+01 0.23305178200E+01 0.23243181204E+01 0.23303930729E+01
 0.23483009545E+01 0.23795306049E+01 0.24319359110E+01 0.25186091837E+01 0.26498444361E+01
 0.28246866658E+01 0.30287029316E+01 0.32374570925E+01 0.34209521715E+01 0.35480393723E+01
 0.35936568827E+01 0.35479898187E+01 0.34208952593E+01 0.32374444260E+01 0.30287740249E+01
 0.28248693546E+01 0.25164201065E+01 0.25197728785E+01 0.25439045116E+01 0.25746112251E+01
 0.26001681804E+01 0.26142051684E+01 0.26144847258E+01 0.26009000690E+01 0.25753499738E+01
 0.25439023752E+01 0.25186091837E+01 0.25146430116E+01 0.25422510084E+01 0.25998251421E+01
 0.26746302208E+01 0.27496506854E+01 0.28095615362E+01 0.28428570984E+01 0.28428562357E+01
 0.28092938846E+01 0.27488243349E+01 0.26736819245E+01 0.25997274121E+01 0.25434439672E+01
 0.26500406468E+01 0.27805740824E+01 0.29143084961E+01 0.30299787879E+01 0.31087066845E+01
 0.31367190880E+01 0.31087913910E+01 0.30301061172E+01 0.29143907184E+01 0.27805224848E+01
 0.26498444361E+01 0.25422510084E+01 0.24696042076E+01 0.24309575931E+01 0.24152464113E+01
 0.24098803355E+01 0.24075844896E+01 0.24067020389E+01 0.24074370585E+01 0.24096762225E+01
 0.24151080588E+01 0.24309710344E+01 0.24697763212E+01 0.25425001267E+01 0.30928398378E+01
 0.33816523978E+01 0.36530478338E+01 0.38657579572E+01 0.39829219402E+01 0.39824884884E+01
 0.38648417135E+01 0.36525046478E+01 0.33821093249E+01 0.30941110833E+01 0.28246866658E+01
 0.25998251421E+01 0.24309575931E+01 0.23145927074E+01 0.22384330305E+01 0.21909333256E+01
 0.21670660356E+01 0.21667608187E+01 0.21904398975E+01 0.22384927179E+01 0.23153216932E+01
 0.24316154989E+01 0.25995797945E+01 0.28235105753E+01 0.39674203566E+01 0.44605220228E+01
 0.48798121183E+01 0.51713831360E+01 0.52816579900E+01 0.51716874575E+01 0.48802684278E+01
 0.44609320637E+01 0.39676514070E+01 0.34708277712E+01 0.30287029316E+01 0.26746302208E+01
 0.24152464113E+01 0.22384330305E+01 0.21257553244E+01 0.20627041510E+01 0.20421867310E+01
 0.20624767393E+01 0.21254005129E+01 0.22381122870E+01 0.24150906517E+01 0.26746467463E+01
 0.30287720638E+01 0.34707935940E+01 0.54202235297E+01 0.64202924608E+01 0.74908487908E+01
 0.82014240938E+01 0.82022985735E+01 0.74926009540E+01 0.64212497921E+01 0.54196412702E+01
 0.46200466522E+01 0.38755993348E+01 0.32374570925E+01 0.27496506854E+01 0.24098803355E+01
 0.21909333256E+01 0.20627041510E+01 0.20038015942E+01 0.20038953715E+01 0.20628366869E+01
 0.21907704838E+01 0.24092325816E+01 0.27488315491E+01 0.32372154992E+01 0.38764139875E+01
 0.46213918231E+01 0.95723383612E+01 0.12779740120E+02 0.15422159936E+02 0.16445095750E+02
 0.15421915090E+02 0.12779362863E+02 0.95720173132E+01 0.69045735279E+01 0.52771465260E+01
 0.42562039859E+01 0.34209521715E+01 0.28095615362E+01 0.24075844896E+01 0.21670660356E+01
 0.20421867310E+01 0.20038953715E+01 0.20424433553E+01 0.21674391869E+01 0.24078879869E+01
 0.28096658417E+01 0.34208421213E+01 0.42559916292E+01 0.52770210356E+01 0.69046782783E+01
 0.21495232995E+02 0.28057600882E+02 0.32035686752E+02 0.32034437780E+02 0.28055146246E+02
 0.21493938454E+02 0.14517664738E+02 0.90769090395E+01 0.59899022978E+01 0.45537929528E+01
 0.35480393723E+01 0.28428570984E+01 0.24067020389E+01 0.21667608187E+01 0.20624767393E+01
 0.20628366869E+01 0.21674391869E+01 0.24071323881E+01 0.28431495848E+01 0.35485798267E+01
 0.45542390279E+01 0.59894047985E+01 0.90755605641E+01 0.14516988818E+02 0.44733461192E+02
 0.54240952560E+02 0.57787843493E+02 0.54240401652E+02 0.44732620331E+02 0.32196162031E+02
 0.20162678018E+02 0.11351132939E+02 0.66164373512E+01 0.47174038217E+01 0.35936568827E+01
 0.28428562357E+01 0.24074370585E+01 0.21904398975E+01 0.21254005129E+01 0.21907704838E+01
 0.24078879869E+01 0.28431495848E+01 0.35936219924E+01 0.47170786095E+01 0.66160573884E+01
 0.11351010921E+02 0.20163015933E+02 0.32196904172E+02 0.79300575753E+02 0.89543276890E+02
 0.89544064765E+02 0.79301746395E+02 0.61855230577E+02 0.42047557652E+02 0.24677027642E+02
 0.12815922512E+02 0.68710385623E+01 0.47176291650E+01 0.35479898187E+01 0.28092938846E+01
 0.24096762225E+01 0.22384927179E+01 0.22381122870E+01 0.24092325816E+01 0.28096658417E+01
 0.35485798267E+01 0.47170786095E+01 0.68694296131E+01 0.12815053026E+02 0.24678043899E+02