   1   1   0   0
  0.1600000E+02  0.2828427E-09  0.2828427E-09  0.2828427E-09  0.5000000E-15
  1.000000000000000E-004
  CAR 
 fcc Cu                                  
     25.63057981     -7.15660107  301      1.56049596      1.00000000
     -7.157  0.0000E+00  0.0000E+00
     -7.047  0.0000E+00  0.0000E+00
     -6.938  0.0000E+00  0.0000E+00
     -6.829  0.0000E+00  0.0000E+00
     -6.719  0.0000E+00  0.0000E+00
     -6.610  0.0000E+00  0.0000E+00
     -6.501  0.0000E+00  0.0000E+00
     -6.392  0.0000E+00  0.0000E+00
     -6.282  0.0000E+00  0.0000E+00
     -6.173  0.0000E+00  0.0000E+00
     -6.064  0.0000E+00  0.0000E+00
     -5.954  0.0000E+00  0.0000E+00
     -5.845  0.0000E+00  0.0000E+00
     -5.736  0.9268E-08  0.1013E-08
     -5.627  0.2113E-01  0.2309E-02
     -5.517  0.5263E-01  0.8061E-02
     -5.408  0.2341E-01  0.1062E-01
     -5.299  0.5147E-01  0.1624E-01
     -5.189  0.8435E-01  0.2546E-01
     -5.080  0.1270E+00  0.3935E-01
     -4.971  0.6161E-01  0.4608E-01
     -4.861  0.7689E-01  0.5448E-01
     -4.752  0.7422E-01  0.6260E-01
     -4.643  0.1689E+00  0.8105E-01
     -4.534  0.6322E-01  0.8796E-01
     -4.424  0.1482E+00  0.1042E+00
     -4.315  0.1897E+00  0.1249E+00
     -4.206  0.1149E+00  0.1375E+00
     -4.096  0.1522E+00  0.1541E+00
     -3.987  0.1169E+00  0.1669E+00
     -3.878  0.1441E+00  0.1826E+00
     -3.769  0.1265E+00  0.1965E+00
     -3.659  0.1141E+00  0.2089E+00
     -3.550  0.3140E+00  0.2432E+00
     -3.441  0.1977E+00  0.2648E+00
     -3.331  0.1639E+00  0.2828E+00
     -3.222  0.2298E+00  0.3079E+00
     -3.113  0.7135E-01  0.3157E+00
     -3.004  0.3807E+00  0.3573E+00
     -2.894  0.3130E+00  0.3915E+00
     -2.785  0.1991E+00  0.4132E+00
     -2.676  0.3034E+00  0.4464E+00
     -2.566  0.3214E+00  0.4815E+00
     -2.457  0.3952E+00  0.5247E+00
     -2.348  0.4211E+00  0.5707E+00
     -2.239  0.3173E+00  0.6054E+00
     -2.129  0.9550E+00  0.7098E+00
     -2.020  0.6322E+00  0.7789E+00
     -1.911  0.1105E+01  0.8997E+00
     -1.801  0.1578E+01  0.1072E+01
     -1.692  0.1555E+01  0.1242E+01
     -1.583  0.1680E+01  0.1426E+01
     -1.473  0.2785E+01  0.1730E+01
     -1.364  0.3510E+01  0.2114E+01
     -1.255  0.3228E+01  0.2466E+01
     -1.146  0.3219E+01  0.2818E+01
     -1.036  0.3469E+01  0.3197E+01
     -0.927  0.4178E+01  0.3654E+01
     -0.818  0.5136E+01  0.4215E+01
     -0.708  0.6269E+01  0.4900E+01
     -0.599  0.7382E+01  0.5707E+01
     -0.490  0.5201E+01  0.6276E+01
     -0.381  0.4230E+01  0.6738E+01
     -0.271  0.5570E+01  0.7347E+01
     -0.162  0.5998E+01  0.8002E+01
     -0.053  0.5205E+01  0.8571E+01
      0.057  0.5941E+01  0.9220E+01
      0.166  0.8554E+01  0.1016E+02
      0.275  0.2959E+01  0.1048E+02
      0.384  0.3793E+00  0.1052E+02
      0.494  0.7245E+00  0.1060E+02
      0.603  0.3145E+00  0.1063E+02
      0.712  0.2973E+00  0.1067E+02
      0.822  0.6328E+00  0.1074E+02
      0.931  0.4242E+00  0.1078E+02
      1.040  0.1753E+00  0.1080E+02
      1.149  0.2771E+00  0.1083E+02
      1.259  0.5761E+00  0.1089E+02
      1.368  0.4243E+00  0.1094E+02
      1.477  0.2697E+00  0.1097E+02
      1.587  0.3072E+00  0.1100E+02
      1.696  0.2759E+00  0.1103E+02
      1.805  0.3919E+00  0.1108E+02
      1.915  0.4294E+00  0.1112E+02
      2.024  0.3150E+00  0.1116E+02
      2.133  0.5295E+00  0.1122E+02
      2.242  0.5932E-01  0.1122E+02
      2.352  0.1906E+00  0.1124E+02
      2.461  0.3425E+00  0.1128E+02
      2.570  0.6168E+00  0.1135E+02
      2.680  0.2558E+00  0.1138E+02
      2.789  0.2360E+00  0.1140E+02
      2.898  0.2697E+00  0.1143E+02
      3.007  0.3458E+00  0.1147E+02
      3.117  0.6300E-01  0.1148E+02
      3.226  0.3836E+00  0.1152E+02
      3.335  0.2533E+00  0.1155E+02
      3.445  0.3335E+00  0.1158E+02
      3.554  0.3931E+00  0.1162E+02
      3.663  0.2219E+00  0.1165E+02
      3.772  0.2855E+00  0.1168E+02
      3.882  0.6644E-01  0.1169E+02
      3.991  0.2785E+00  0.1172E+02
      4.100  0.1621E+00  0.1174E+02
      4.210  0.5916E+00  0.1180E+02
      4.319  0.2873E+00  0.1183E+02
      4.428  0.2939E+00  0.1186E+02
      4.537  0.3874E+00  0.1191E+02
      4.647  0.4341E+00  0.1195E+02
      4.756  0.3457E+00  0.1199E+02
      4.865  0.3871E+00  0.1203E+02
      4.975  0.1591E+00  0.1205E+02
      5.084  0.1339E+00  0.1207E+02
      5.193  0.5631E+00  0.1213E+02
      5.303  0.3085E+00  0.1216E+02
      5.412  0.4039E+00  0.1221E+02
      5.521  0.3679E+00  0.1225E+02
      5.630  0.1333E+00  0.1226E+02
      5.740  0.3667E+00  0.1230E+02
      5.849  0.5521E+00  0.1236E+02
      5.958  0.9165E-01  0.1237E+02
      6.068  0.1862E+00  0.1239E+02
      6.177  0.2921E+00  0.1242E+02
      6.286  0.4994E+00  0.1248E+02
      6.395  0.2304E+00  0.1250E+02
      6.505  0.1672E+00  0.1252E+02
      6.614  0.5122E+00  0.1258E+02
      6.723  0.2378E+00  0.1260E+02
      6.833  0.1622E+00  0.1262E+02
      6.942  0.1884E+00  0.1264E+02
      7.051  0.5143E+00  0.1270E+02
      7.160  0.5093E+00  0.1275E+02
      7.270  0.3538E+00  0.1279E+02
      7.379  0.3065E+00  0.1282E+02
      7.488  0.5002E+00  0.1288E+02
      7.598  0.9969E-01  0.1289E+02
      7.707  0.4179E+00  0.1294E+02
      7.816  0.5028E+00  0.1299E+02
      7.926  0.2764E+00  0.1302E+02
      8.035  0.6474E+00  0.1309E+02
      8.144  0.2353E+00  0.1312E+02
      8.253  0.3551E+00  0.1316E+02
      8.363  0.4229E+00  0.1320E+02
      8.472  0.8517E+00  0.1330E+02
      8.581  0.6630E-01  0.1330E+02
      8.691  0.4791E+00  0.1336E+02
      8.800  0.1547E+00  0.1337E+02
      8.909  0.2947E+00  0.1340E+02
      9.018  0.7178E+00  0.1348E+02
      9.128  0.5584E+00  0.1354E+02
      9.237  0.4459E+00  0.1359E+02
      9.346  0.3907E+00  0.1364E+02
      9.456  0.2182E+00  0.1366E+02
      9.565  0.3905E+00  0.1370E+02
      9.674  0.2558E+00  0.1373E+02
      9.783  0.3164E+00  0.1376E+02
      9.893  0.3052E+00  0.1380E+02
     10.002  0.8689E+00  0.1389E+02
     10.111  0.4990E+00  0.1395E+02
     10.221  0.5437E+00  0.1401E+02
     10.330  0.9474E-01  0.1402E+02
     10.439  0.6342E+00  0.1409E+02
     10.548  0.6717E+00  0.1416E+02
     10.658  0.1879E+00  0.1418E+02
     10.767  0.4372E+00  0.1423E+02
     10.876  0.6044E+00  0.1429E+02
     10.986  0.1855E+00  0.1431E+02
     11.095  0.7081E+00  0.1439E+02
     11.204  0.1632E+00  0.1441E+02
     11.314  0.5849E+00  0.1447E+02
     11.423  0.3951E+00  0.1452E+02
     11.532  0.3107E+00  0.1455E+02
     11.641  0.6276E+00  0.1462E+02
     11.751  0.7152E+00  0.1470E+02
     11.860  0.2932E+00  0.1473E+02
     11.969  0.4211E+00  0.1478E+02
     12.079  0.5195E+00  0.1483E+02
     12.188  0.3902E+00  0.1488E+02
     12.297  0.6322E+00  0.1494E+02
     12.406  0.3848E+00  0.1499E+02
     12.516  0.8004E+00  0.1507E+02
     12.625  0.6189E+00  0.1514E+02
     12.734  0.2211E+00  0.1517E+02
     12.844  0.6446E+00  0.1524E+02
     12.953  0.7348E+00  0.1532E+02
     13.062  0.4032E+00  0.1536E+02
     13.171  0.5259E+00  0.1542E+02
     13.281  0.4223E+00  0.1546E+02
     13.390  0.3610E+00  0.1550E+02
     13.499  0.6047E+00  0.1557E+02
     13.609  0.4693E+00  0.1562E+02
     13.718  0.5037E+00  0.1568E+02
     13.827  0.5033E+00  0.1573E+02
     13.936  0.3157E+00  0.1577E+02
     14.046  0.5920E+00  0.1583E+02
     14.155  0.6848E+00  0.1591E+02
     14.264  0.5240E+00  0.1596E+02
     14.374  0.2411E+00  0.1599E+02
     14.483  0.5665E+00  0.1605E+02
     14.592  0.2716E+00  0.1608E+02
     14.702  0.6213E+00  0.1615E+02
     14.811  0.3764E+00  0.1619E+02
     14.920  0.3878E+00  0.1623E+02
     15.029  0.5206E+00  0.1629E+02
     15.139  0.5617E+00  0.1635E+02
     15.248  0.2557E+00  0.1638E+02
     15.357  0.3494E+00  0.1642E+02
     15.467  0.4032E+00  0.1646E+02
     15.576  0.5455E+00  0.1652E+02
     15.685  0.3144E-01  0.1652E+02
     15.794  0.3396E+00  0.1656E+02
     15.904  0.1136E+00  0.1657E+02
     16.013  0.6482E+00  0.1664E+02
     16.122  0.6136E+00  0.1671E+02
     16.232  0.4395E+00  0.1676E+02
     16.341  0.3062E+00  0.1679E+02
     16.450  0.2764E+00  0.1682E+02
     16.559  0.3385E+00  0.1686E+02
     16.669  0.6018E+00  0.1693E+02
     16.778  0.4366E+00  0.1697E+02
     16.887  0.2742E-01  0.1698E+02
     16.997  0.4794E+00  0.1703E+02
     17.106  0.2363E+00  0.1705E+02
     17.215  0.5013E+00  0.1711E+02
     17.324  0.2461E+00  0.1714E+02
     17.434  0.5054E+00  0.1719E+02
     17.543  0.7660E+00  0.1727E+02
     17.652  0.5695E+00  0.1734E+02
     17.762  0.3218E+00  0.1737E+02
     17.871  0.5561E+00  0.1743E+02
     17.980  0.4614E+00  0.1748E+02
     18.090  0.4683E+00  0.1753E+02
     18.199  0.2233E+00  0.1756E+02
     18.308  0.6279E+00  0.1763E+02
     18.417  0.3974E+00  0.1767E+02
     18.527  0.4989E+00  0.1773E+02
     18.636  0.5982E+00  0.1779E+02
     18.745  0.4402E+00  0.1784E+02
     18.855  0.8928E+00  0.1794E+02
     18.964  0.4738E+00  0.1799E+02
     19.073  0.5488E+00  0.1805E+02
     19.182  0.5764E+00  0.1811E+02
     19.292  0.6213E+00  0.1818E+02
     19.401  0.6492E+00  0.1825E+02
     19.510  0.6376E+00  0.1832E+02
     19.620  0.4180E+00  0.1837E+02
     19.729  0.4926E+00  0.1842E+02
     19.838  0.6172E+00  0.1849E+02
     19.947  0.6428E+00  0.1856E+02
     20.057  0.4539E+00  0.1861E+02
     20.166  0.4075E+00  0.1865E+02
     20.275  0.5963E+00  0.1872E+02
     20.385  0.2264E+00  0.1874E+02
     20.494  0.4458E+00  0.1879E+02
     20.603  0.1023E+01  0.1890E+02
     20.713  0.7930E+00  0.1899E+02
     20.822  0.6130E+00  0.1906E+02
     20.931  0.6333E+00  0.1912E+02
     21.040  0.6224E+00  0.1919E+02
     21.150  0.1001E+01  0.1930E+02
     21.259  0.2889E+00  0.1933E+02
     21.368  0.7182E-01  0.1934E+02
     21.478  0.5665E+00  0.1940E+02
     21.587  0.3894E+00  0.1945E+02
     21.696  0.6696E+00  0.1952E+02
     21.805  0.4967E+00  0.1957E+02
     21.915  0.1352E+00  0.1959E+02
     22.024  0.2175E+00  0.1961E+02
     22.133  0.2470E+00  0.1964E+02
     22.243  0.2458E+00  0.1967E+02
     22.352  0.6292E+00  0.1973E+02
     22.461  0.3333E+00  0.1977E+02
     22.570  0.3103E+00  0.1980E+02
     22.680  0.2902E+00  0.1984E+02
     22.789  0.4651E+00  0.1989E+02
     22.898  0.3727E+00  0.1993E+02
     23.008  0.2015E+00  0.1995E+02
     23.117  0.1128E-01  0.1995E+02
     23.226  0.6019E-01  0.1996E+02
     23.335  0.1257E+00  0.1997E+02
     23.445  0.4720E-02  0.1997E+02
     23.554  0.0000E+00  0.1997E+02
     23.663  0.0000E+00  0.1997E+02
     23.773  0.0000E+00  0.1997E+02
     23.882  0.7545E-04  0.1997E+02
     23.991  0.1270E+00  0.1999E+02
     24.101  0.3146E-03  0.1999E+02
     24.210  0.1268E+00  0.2000E+02
     24.319  0.0000E+00  0.2000E+02
     24.428  0.0000E+00  0.2000E+02
     24.538  0.0000E+00  0.2000E+02
     24.647  0.0000E+00  0.2000E+02
     24.756  0.0000E+00  0.2000E+02
     24.866  0.0000E+00  0.2000E+02
     24.975  0.0000E+00  0.2000E+02
     25.084  0.0000E+00  0.2000E+02
     25.193  0.0000E+00  0.2000E+02
     25.303  0.0000E+00  0.2000E+02
     25.412  0.0000E+00  0.2000E+02
     25.521  0.0000E+00  0.2000E+02
     25.631  0.0000E+00  0.2000E+02
