    1    1    1    1
  0.1600000E+02  0.2828427E-09  0.2828427E-09  0.2828427E-09  0.5000000E-15
  1.000000000000000E-004
  CAR 
 fcc Cu                                  
     11    182     10
 
  0.4166667E-01  0.4166667E-01  0.4166667E-01  0.1157407E-02
      1         -5.666275   1.000000
      2         -0.745140   1.000000
      3         -0.729516   1.000000
      4         -0.729515   1.000000
      5         -0.223250   1.000000
      6         -0.223250   1.000000
      7         21.040895   0.000000
      8         22.035259   0.000000
      9         22.035260   0.000000
     10         22.050112   0.000000
 
  0.1250000E+00  0.4166667E-01  0.4166667E-01  0.3472222E-02
      1         -5.395836   1.000000
      2         -0.787817   1.000000
      3         -0.693645   1.000000
      4         -0.685990   1.000000
      5         -0.255323   1.000000
      6         -0.214103   1.000000
      7         18.568759   0.000000
      8         19.982631   0.000000
      9         22.340260   0.000000
     10         22.354236   0.000000
 
  0.2083333E+00  0.4166667E-01  0.4166667E-01  0.3472222E-02
      1         -4.737056   1.000000
      2         -0.858593   1.000000
      3         -0.634355   1.000000
      4         -0.631146   1.000000
      5         -0.271765   1.000000
      6         -0.184967   1.000000
      7         14.756489   0.000000
      8         19.110064   0.000000
      9         21.713193   0.000000
     10         22.264042   0.000000
 
  0.2916667E+00  0.4166667E-01  0.4166667E-01  0.3472222E-02
      1         -3.760328   1.000000
      2         -0.873794   1.000000
      3         -0.640259   1.000000
      4         -0.627790   1.000000
      5         -0.194610   1.000000
      6         -0.080943   1.000000
      7         11.186867   0.000000
      8         18.528475   0.000000
      9         20.983930   0.000000
     10         21.777274   0.000000
 
  0.3750000E+00  0.4166667E-01  0.4166667E-01  0.3472222E-02
      1         -2.726799   1.000000
      2         -0.696069   1.000000
      3         -0.679450   1.000000
      4         -0.591846   1.000000
      5         -0.047284   1.000000
      6          0.092466   1.000000
      7          7.966326   0.000000
      8         18.268648   0.000000
      9         20.249130   0.000000
     10         21.106081   0.000000
 
  0.4583333E+00  0.4166667E-01  0.4166667E-01  0.3472222E-02
      1         -2.183396   1.000000
      2         -0.743797   1.000000
      3         -0.724888   1.000000
      4         -0.023447   1.000000
      5          0.081745   1.000000
      6          0.718704   1.000000
      7          5.237351   0.000000
      8         18.354239   0.000000
      9         19.522568   0.000000
     10         20.519063   0.000000
 
 -0.4583333E+00  0.4166667E-01  0.4166667E-01  0.3472222E-02
      1         -2.093508   1.000000
      2         -0.760502   1.000000
      3         -0.735393   1.000000
      4          0.039321   1.000000
      5          0.135831   1.000000
      6          1.459506   1.000000
      7          4.079415   0.000000
      8         18.783230   0.000000
      9         18.958059   0.000000
     10         20.185501   0.000000
 
 -0.3750000E+00  0.4166667E-01  0.4166667E-01  0.3472222E-02
      1         -2.295068   1.000000
      2         -0.735283   1.000000
      3         -0.707192   1.000000
      4         -0.180124   1.000000
      5          0.097268   1.000000
      6          0.349171   1.000000
      7          6.071255   0.000000
      8         18.690700   0.000000
      9         19.422252   0.000000
     10         20.271964   0.000000
 
 -0.2916667E+00  0.4166667E-01  0.4166667E-01  0.3472222E-02
      1         -3.044281   1.000000
      2         -0.751467   1.000000
      3         -0.677754   1.000000
      4         -0.656239   1.000000
      5         -0.053187   1.000000
      6         -0.013707   1.000000
      7          8.995258   0.000000
      8         18.766269   0.000000
      9         19.879139   0.000000
     10         21.088016   0.000000
 
 -0.2083333E+00  0.4166667E-01  0.4166667E-01  0.3472222E-02
      1         -4.112086   1.000000
      2         -0.886666   1.000000
      3         -0.628570   1.000000
      4         -0.620395   1.000000
      5         -0.219138   1.000000
      6         -0.136410   1.000000
      7         12.342660   0.000000
      8         19.184246   0.000000
      9         20.302798   0.000000
     10         22.198989   0.000000
 
 -0.1250000E+00  0.4166667E-01  0.4166667E-01  0.3472222E-02
      1         -4.997175   1.000000
      2         -0.838444   1.000000
      3         -0.647836   1.000000
      4         -0.645386   1.000000
      5         -0.274636   1.000000
      6         -0.200643   1.000000
      7         16.007062   0.000000
      8         19.921856   0.000000
      9         20.847194   0.000000
     10         22.746551   0.000000
 
 -0.4166667E-01  0.4166667E-01  0.4166667E-01  0.3472222E-02
      1         -5.530594   1.000000
      2         -0.772390   1.000000
      3         -0.706443   1.000000
      4         -0.705015   1.000000
      5         -0.249552   1.000000
      6         -0.211005   1.000000
      7         19.844969   0.000000
      8         20.935836   0.000000
      9         21.457593   0.000000
     10         22.239108   0.000000
 
  0.1250000E+00  0.1250000E+00  0.4166667E-01  0.3472222E-02
      1         -5.261406   1.000000
      2         -0.828676   1.000000
      3         -0.657417   1.000000
      4         -0.656565   1.000000
      5         -0.298472   1.000000
      6         -0.187319   1.000000
      7         18.640317   0.000000
      8         19.648206   0.000000
      9         20.650442   0.000000
     10         21.681265   0.000000
 
  0.2083333E+00  0.1250000E+00  0.4166667E-01  0.6944444E-02
      1         -4.734294   1.000000
      2         -0.908139   1.000000
      3         -0.601335   1.000000
      4         -0.583985   1.000000
      5         -0.340312   1.000000
      6         -0.148318   1.000000
      7         16.208130   0.000000
      8         17.630455   0.000000
      9         20.855637   0.000000
     10         22.211445   0.000000
 
  0.2916667E+00  0.1250000E+00  0.4166667E-01  0.6944444E-02
      1         -3.863168   1.000000
      2         -0.972606   1.000000
      3         -0.630675   1.000000
      4         -0.547402   1.000000
      5         -0.250640   1.000000
      6         -0.048548   1.000000
      7         12.568578   0.000000
      8         16.928247   0.000000
      9         20.337982   0.000000
     10         20.900955   0.000000
 
  0.3750000E+00  0.1250000E+00  0.4166667E-01  0.6944444E-02
      1         -2.824852   1.000000
      2         -0.905064   1.000000
      3         -0.719747   1.000000
      4         -0.580529   1.000000
      5         -0.041743   1.000000
      6          0.169152   1.000000
      7          9.224708   0.000000
      8         16.594235   0.000000
      9         19.058861   0.000000
     10         20.031289   0.000000
 
  0.4583333E+00  0.1250000E+00  0.4166667E-01  0.6944444E-02
      1         -2.125160   1.000000
      2         -0.799440   1.000000
      3         -0.635911   1.000000
      4         -0.537238   1.000000
      5          0.098259   1.000000
      6          0.839631   1.000000
      7          6.284652   0.000000
      8         16.652800   0.000000
      9         17.626316   0.000000
     10         19.927886   0.000000
 
 -0.4583333E+00  0.1250000E+00  0.4166667E-01  0.6944444E-02
      1         -1.948570   1.000000
      2         -0.830191   1.000000
      3         -0.661571   1.000000
      4         -0.292384   1.000000
      5          0.127297   1.000000
      6          2.062498   0.000000
      7          4.192616   0.000000
      8         16.545098   0.000000
      9         17.177519   0.000000
     10         20.079292   0.000000
 
 -0.3750000E+00  0.1250000E+00  0.4166667E-01  0.6944444E-02
      1         -2.024598   1.000000
      2         -0.807837   1.000000
      3         -0.653566   1.000000
      4         -0.389188   1.000000
      5          0.066138   1.000000
      6          1.261033   1.000000
      7          5.435428   0.000000
      8         15.933358   0.000000
      9         18.072826   0.000000
     10         20.484781   0.000000
 
 -0.2916667E+00  0.1250000E+00  0.4166667E-01  0.6944444E-02
      1         -2.520268   1.000000
      2         -0.789953   1.000000
      3         -0.739008   1.000000
      4         -0.605597   1.000000
      5         -0.080084   1.000000
      6          0.380430   1.000000
      7          8.198539   0.000000
      8         15.723755   0.000000
      9         19.385962   0.000000
     10         21.082649   0.000000
 
 -0.2083333E+00  0.1250000E+00  0.4166667E-01  0.6944444E-02
      1         -3.518330   1.000000
      2         -0.955554   1.000000
      3         -0.659590   1.000000
      4         -0.555066   1.000000
      5         -0.258357   1.000000
      6          0.058944   1.000000
      7         11.422316   0.000000
      8         15.909896   0.000000
      9         21.062980   0.000000
     10         21.749305   0.000000
 
 -0.1250000E+00  0.1250000E+00  0.4166667E-01  0.6944444E-02
      1         -4.478247   1.000000
      2         -0.916039   1.000000
      3         -0.616125   1.000000
      4         -0.571052   1.000000
      5         -0.337764   1.000000
      6         -0.111262   1.000000
      7         14.977378   0.000000
      8         16.470797   0.000000
      9         22.303105   0.000000
     10         22.988536   0.000000
 
 -0.4166667E-01  0.1250000E+00  0.4166667E-01  0.6944444E-02
      1         -5.128614   1.000000
      2         -0.834772   1.000000
      3         -0.651913   1.000000
      4         -0.648582   1.000000
      5         -0.293217   1.000000
      6         -0.189944   1.000000
      7         17.347376   0.000000
      8         18.785917   0.000000
      9         21.690221   0.000000
     10         22.688795   0.000000
 
  0.2083333E+00  0.2083333E+00  0.4166667E-01  0.3472222E-02
      1         -4.348202   1.000000
      2         -1.005464   1.000000
      3         -0.519473   1.000000
      4         -0.494173   1.000000
      5         -0.402462   1.000000
      6         -0.112149   1.000000
      7         16.404769   0.000000
      8         17.214226   0.000000
      9         19.111599   0.000000
     10         20.196996   0.000000
 
  0.2916667E+00  0.2083333E+00  0.4166667E-01  0.6944444E-02
      1         -3.618711   1.000000
      2         -1.102120   1.000000
      3         -0.593729   1.000000
      4         -0.396557   1.000000
      5         -0.272161   1.000000
      6         -0.032501   1.000000
      7         14.209269   0.000000
      8         15.555479   0.000000
      9         18.306363   0.000000
     10         19.370309   0.000000
 
  0.3750000E+00  0.2083333E+00  0.4166667E-01  0.6944444E-02
      1         -2.683230   1.000000
      2         -1.144306   1.000000
      3         -0.718478   1.000000
      4         -0.399373   1.000000
      5         -0.009786   1.000000
      6          0.222253   1.000000
      7         10.817422   0.000000
      8         15.081506   0.000000
      9         16.372450   0.000000
     10         19.095978   0.000000
 
  0.4583333E+00  0.2083333E+00  0.4166667E-01  0.6944444E-02
      1         -1.940428   1.000000
      2         -1.052754   1.000000
      3         -0.785942   1.000000
      4         -0.446018   1.000000
      5          0.118194   1.000000
      6          1.033609   1.000000
      7          7.731045   0.000000
      8         14.742910   0.000000
      9         15.091651   0.000000
     10         19.042158   0.000000
 
 -0.4583333E+00  0.2083333E+00  0.4166667E-01  0.6944444E-02
      1         -1.695061   1.000000
      2         -0.991016   1.000000
      3         -0.664539   1.000000
      4         -0.492133   1.000000
      5          0.133365   1.000000
      6          2.541684   0.000000
      7          5.115253   0.000000
      8         13.571694   0.000000
      9         15.470356   0.000000
     10         19.275349   0.000000
 
 -0.3750000E+00  0.2083333E+00  0.4166667E-01  0.6944444E-02
      1         -1.676777   1.000000
      2         -0.960435   1.000000
      3         -0.649870   1.000000
      4         -0.510608   1.000000
      5          0.051536   1.000000
      6          2.565528   0.000000
      7          5.131219   0.000000
      8         12.771318   0.000000
      9         16.318444   0.000000
     10         19.834392   0.000000
 
 -0.2916667E+00  0.2083333E+00  0.4166667E-01  0.6944444E-02
      1         -1.899002   1.000000
      2         -0.890433   1.000000
      3         -0.873707   1.000000
      4         -0.485111   1.000000
      5         -0.105664   1.000000
      6          1.160910   1.000000
      7          7.761817   0.000000
      8         12.384819   0.000000
      9         17.573688   0.000000
     10         20.752284   0.000000
 
 -0.2083333E+00  0.2083333E+00  0.4166667E-01  0.6944444E-02
      1         -2.667072   1.000000
      2         -1.034239   1.000000
      3         -0.757595   1.000000
      4         -0.429947   1.000000
      5         -0.301847   1.000000
      6          0.440701   1.000000
      7         10.852957   0.000000
      8         12.419537   0.000000
      9         19.185663   0.000000
     10         22.009299   0.000000
 
 -0.1250000E+00  0.2083333E+00  0.4166667E-01  0.6944444E-02
      1         -3.622358   1.000000
      2         -0.991630   1.000000
      3         -0.657540   1.000000
      4         -0.480087   1.000000
      5         -0.357099   1.000000
      6          0.080732   1.000000
      7         12.805439   0.000000
      8         14.329777   0.000000
      9         21.072463   0.000000
     10         22.816813   0.000000
 
 -0.4166667E-01  0.2083333E+00  0.4166667E-01  0.6944444E-02
      1         -4.354773   1.000000
      2         -0.904613   1.000000
      3         -0.620544   1.000000
      4         -0.596785   1.000000
      5         -0.285278   1.000000
      6         -0.126034   1.000000
      7         13.608261   0.000000
      8         17.990259   0.000000
      9         21.112674   0.000000
     10         22.740307   0.000000
 
  0.2916667E+00  0.2916667E+00  0.4166667E-01  0.3472222E-02
      1         -3.074434   1.000000
      2         -1.224038   1.000000
      3         -0.501732   1.000000
      4         -0.269043   1.000000
      5         -0.202428   1.000000
      6         -0.016648   1.000000
      7         14.511872   0.000000
      8         15.174596   0.000000
      9         15.921435   0.000000
     10         17.949075   0.000000
 
  0.3750000E+00  0.2916667E+00  0.4166667E-01  0.6944444E-02
      1         -2.382379   1.000000
      2         -1.309741   1.000000
      3         -0.517092   1.000000
      4         -0.168305   1.000000
      5         -0.000352   1.000000
      6          0.233641   1.000000
      7         12.615962   0.000000
      8         13.781321   0.000000
      9         13.998352   0.000000
     10         18.315313   0.000000
 
  0.4583333E+00  0.2916667E+00  0.4166667E-01  0.6944444E-02
      1         -1.826194   1.000000
      2         -1.319551   1.000000
      3         -0.600355   1.000000
      4         -0.207678   1.000000
      5          0.129829   1.000000
      6          1.210392   1.000000
      7          9.527015   0.000000
      8         12.186026   0.000000
      9         13.724278   0.000000
     10         18.281624   0.000000
 
 -0.4583333E+00  0.2916667E+00  0.4166667E-01  0.6944444E-02
      1         -1.553125   1.000000
      2         -1.244385   1.000000
      3         -0.672181   1.000000
      4         -0.268765   1.000000
      5          0.148577   1.000000
      6          2.843964   0.000000
      7          6.729158   0.000000
      8         10.863401   0.000000
      9         14.017752   0.000000
     10         18.455401   0.000000
 
 -0.3750000E+00  0.2916667E+00  0.4166667E-01  0.6944444E-02
      1         -1.425573   1.000000
      2         -1.159233   1.000000
      3         -0.759304   1.000000
      4         -0.321437   1.000000
      5          0.067396   1.000000
      6          4.219368   0.000000
      7          5.123590   0.000000
      8          9.928053   0.000000
      9         14.776230   0.000000
     10         18.918553   0.000000
 
 -0.2916667E+00  0.2916667E+00  0.4166667E-01  0.6944444E-02
      1         -1.430094   1.000000
      2         -1.047849   1.000000
      3         -0.935801   1.000000
      4         -0.350319   1.000000
      5         -0.075650   1.000000
      6          2.408560   0.000000
      7          7.606292   0.000000
      8          9.439185   0.000000
      9         15.949165   0.000000
     10         19.700572   0.000000
 
 -0.2083333E+00  0.2916667E+00  0.4166667E-01  0.6944444E-02
      1         -1.852619   1.000000
      2         -1.018808   1.000000
      3         -0.893344   1.000000
      4         -0.402638   1.000000
      5         -0.191003   1.000000
      6          1.144703   1.000000
      7          9.124624   0.000000
      8         10.775988   0.000000
      9         17.470760   0.000000
     10         20.778806   0.000000
 
 -0.1250000E+00  0.2916667E+00  0.4166667E-01  0.6944444E-02
      1         -2.613430   1.000000
      2         -0.956763   1.000000
      3         -0.750717   1.000000
      4         -0.524385   1.000000
      5         -0.192390   1.000000
      6          0.420238   1.000000
      7          9.467903   0.000000
      8         14.025443   0.000000
      9         19.255987   0.000000
     10         21.688747   0.000000
 
 -0.4166667E-01  0.2916667E+00  0.4166667E-01  0.6944444E-02
      1         -3.319066   1.000000
      2         -0.877830   1.000000
      3         -0.665951   1.000000
      4         -0.616247   1.000000
      5         -0.150556   1.000000
      6          0.019100   1.000000
      7         10.147725   0.000000
      8         17.528611   0.000000
      9         20.554261   0.000000
     10         21.168107   0.000000
 
  0.3750000E+00  0.3750000E+00  0.4166667E-01  0.3472222E-02
      1         -2.083258   1.000000
      2         -1.425244   1.000000
      3         -0.109864   1.000000
      4         -0.037045   1.000000
      5          0.078848   1.000000
      6          0.421833   1.000000
      7         11.703139   0.000000
      8         13.093127   0.000000
      9         13.650116   0.000000
     10         17.180857   0.000000
 
  0.4583333E+00  0.3750000E+00  0.4166667E-01  0.6944444E-02
      1         -1.857543   1.000000
      2         -1.474715   1.000000
      3         -0.157033   1.000000
      4          0.031784   1.000000
      5          0.131476   1.000000
      6          1.524102   0.994966
      7          9.917364   0.000000
      8         11.573213   0.000000
      9         12.757276   0.000000
     10         17.678933   0.000000
 
 -0.4583333E+00  0.3750000E+00  0.4166667E-01  0.6944444E-02
      1         -1.671208   1.000000
      2         -1.440246   1.000000
      3         -0.321194   1.000000
      4         -0.049081   1.000000
      5          0.173496   1.000000
      6          3.169388   0.000000
      7          8.438918   0.000000
      8          8.939155   0.000000
      9         12.911591   0.000000
     10         17.857357   0.000000
 
 -0.3750000E+00  0.3750000E+00  0.4166667E-01  0.6944444E-02
      1         -1.494844   1.000000
      2         -1.334940   1.000000
      3         -0.550329   1.000000
      4         -0.139441   1.000000
      5          0.115245   1.000000
      6          5.107005   0.000000
      7          6.277888   0.000000
      8          7.749769   0.000000
      9         13.556625   0.000000
     10         18.216295   0.000000
 
 -0.2916667E+00  0.3750000E+00  0.4166667E-01  0.6944444E-02
      1         -1.363815   1.000000
      2         -1.196113   1.000000
      3         -0.786444   1.000000
      4         -0.260606   1.000000
      5          0.028966   1.000000
      6          4.173088   0.000000
      7          6.271649   0.000000
      8          8.432037   0.000000
      9         14.635893   0.000000
     10         18.847151   0.000000
 
 -0.2083333E+00  0.3750000E+00  0.4166667E-01  0.6944444E-02
      1         -1.537134   1.000000
      2         -1.016045   1.000000
      3         -0.815813   1.000000
      4         -0.421298   1.000000
      5         -0.015836   1.000000
      6          2.472911   0.000000
      7          6.305642   0.000000
      8         11.013009   0.000000
      9         16.072709   0.000000
     10         19.746760   0.000000
 
 -0.1250000E+00  0.3750000E+00  0.4166667E-01  0.6944444E-02
      1         -1.963836   1.000000
      2         -0.843025   1.000000
      3         -0.670165   1.000000
      4         -0.569730   1.000000
      5         -0.012570   1.000000
      6          1.196969   1.000000
      7          6.514433   0.000000
      8         14.123166   0.000000
      9         17.777125   0.000000
     10         20.669458   0.000000
 
 -0.4166667E-01  0.3750000E+00  0.4166667E-01  0.6944444E-02
      1         -2.408782   1.000000
      2         -0.735181   1.000000
      3         -0.670054   1.000000
      4         -0.510442   1.000000
      5          0.025280   1.000000
      6          0.329488   1.000000
      7          7.062569   0.000000
      8         17.428298   0.000000
      9         19.506304   0.000000
     10         20.413937   0.000000
 
  0.4583333E+00  0.4583333E+00  0.4166667E-01  0.3472222E-02
      1         -1.873253   1.000000
      2         -1.556499   1.000000
      3          0.095682   1.000000
      4          0.133382   1.000000
      5          0.180387   1.000000
      6          2.302490   0.000000
      7          8.162580   0.000000
      8         12.234629   0.000000
      9         12.749463   0.000000
     10         16.768285   0.000000
 
 -0.4583333E+00  0.4583333E+00  0.4166667E-01  0.6944444E-02
      1         -1.810847   1.000000
      2         -1.553810   1.000000
      3          0.034226   1.000000
      4          0.085369   1.000000
      5          0.211662   1.000000
      6          3.458751   0.000000
      7          7.046178   0.000000
      8         11.074185   0.000000
      9         12.239071   0.000000
     10         17.413329   0.000000
 
 -0.3750000E+00  0.4583333E+00  0.4166667E-01  0.6944444E-02
      1         -1.670331   1.000000
      2         -1.465496   1.000000
      3         -0.250987   1.000000
      4         -0.013768   1.000000
      5          0.177517   1.000000
      6          4.145768   0.000000
      7          7.265332   0.000000
      8          8.677931   0.000000
      9         12.744804   0.000000
     10         17.775411   0.000000
 
 -0.2916667E+00  0.4583333E+00  0.4166667E-01  0.6944444E-02
      1         -1.505454   1.000000
      2         -1.306048   1.000000
      3         -0.596369   1.000000
      4         -0.189746   1.000000
      5          0.133679   1.000000
      6          4.003213   0.000000
      7          6.430493   0.000000
      8          9.134434   0.000000
      9         13.711445   0.000000
     10         18.296010   0.000000
 
 -0.2083333E+00  0.4583333E+00  0.4166667E-01  0.6944444E-02
      1         -1.539785   1.000000
      2         -1.087091   1.000000
      3         -0.715892   1.000000
      4         -0.406248   1.000000
      5          0.108848   1.000000
      6          3.601710   0.000000
      7          4.770220   0.000000
      8         11.683370   0.000000
      9         15.055244   0.000000
     10         19.059897   0.000000
 
 -0.1250000E+00  0.4583333E+00  0.4166667E-01  0.6944444E-02
      1         -1.817071   1.000000
      2         -0.894171   1.000000
      3         -0.594632   1.000000
      4         -0.469918   1.000000
      5          0.102548   1.000000
      6          2.526124   0.000000
      7          4.320984   0.000000
      8         14.633632   0.000000
      9         16.684653   0.000000
     10         19.952221   0.000000
 
 -0.4166667E-01  0.4583333E+00  0.4166667E-01  0.6944444E-02
      1         -2.069706   1.000000
      2         -0.778317   1.000000
      3         -0.706240   1.000000
      4         -0.130395   1.000000
      5          0.119216   1.000000
      6          1.360066   1.000000
      7          4.584808   0.000000
      8         17.708730   0.000000
      9         18.445718   0.000000
     10         20.211404   0.000000
 
 -0.4583333E+00 -0.4583333E+00  0.4166667E-01  0.3472222E-02
      1         -1.863997   1.000000
      2         -1.584489   1.000000
      3          0.114700   1.000000
      4          0.179716   1.000000
      5          0.213833   1.000000
      6          3.195142   0.000000
      7          6.974432   0.000000
      8         12.057196   0.000000
      9         12.563700   0.000000
     10         16.687568   0.000000
 
 -0.3750000E+00 -0.4583333E+00  0.4166667E-01  0.6944444E-02
      1         -1.817000   1.000000
      2         -1.526891   1.000000
      3         -0.036551   1.000000
      4          0.078796   1.000000
      5          0.179884   1.000000
      6          2.551523   0.000000
      7          8.255446   0.000000
      8         11.241449   0.000000
      9         12.413644   0.000000
     10         17.500786   0.000000
 
 -0.2916667E+00 -0.4583333E+00  0.4166667E-01  0.6944444E-02
      1         -1.699817   1.000000
      2         -1.390444   1.000000
      3         -0.448351   1.000000
      4         -0.117308   1.000000
      5          0.159764   1.000000
      6          2.101608   0.000000
      7          9.057427   0.000000
      8         10.321206   0.000000
      9         13.240224   0.000000
     10         18.024330   0.000000
 
 -0.2083333E+00 -0.4583333E+00  0.4166667E-01  0.6944444E-02
      1         -1.681893   1.000000
      2         -1.154841   1.000000
      3         -0.746812   1.000000
      4         -0.358236   1.000000
      5          0.145808   1.000000
      6          1.831647   0.000000
      7          7.165485   0.000000
      8         12.755203   0.000000
      9         14.471863   0.000000
     10         18.702111   0.000000
 
 -0.1250000E+00 -0.4583333E+00  0.4166667E-01  0.6944444E-02
      1         -1.888578   1.000000
      2         -0.888753   1.000000
      3         -0.614095   1.000000
      4         -0.560526   1.000000
      5          0.131501   1.000000
      6          1.596856   0.005069
      7          5.633251   0.000000
      8         15.541546   0.000000
      9         16.031865   0.000000
     10         19.564667   0.000000
 
 -0.3750000E+00 -0.3750000E+00  0.4166667E-01  0.3472222E-02
      1         -1.920689   1.000000
      2         -1.502265   1.000000
      3          0.041312   1.000000
      4          0.048716   1.000000
      5          0.128566   1.000000
      6          1.263902   1.000000
      7          9.822440   0.000000
      8         12.583338   0.000000
      9         13.115136   0.000000
     10         16.931778   0.000000
 
 -0.2916667E+00 -0.3750000E+00  0.4166667E-01  0.6944444E-02
      1         -2.008382   1.000000
      2         -1.400729   1.000000
      3         -0.333493   1.000000
      4         -0.056892   1.000000
      5          0.077089   1.000000
      6          0.704388   1.000000
      7         11.726255   0.000000
      8         12.118629   0.000000
      9         13.261294   0.000000
     10         17.947786   0.000000
 
 -0.2083333E+00 -0.3750000E+00  0.4166667E-01  0.6944444E-02
      1         -2.153968   1.000000
      2         -1.234737   1.000000
      3         -0.705542   1.000000
      4         -0.305463   1.000000
      5          0.077532   1.000000
      6          0.586910   1.000000
      7         10.112652   0.000000
      8         14.154611   0.000000
      9         14.402172   0.000000
     10         18.636011   0.000000
 
 -0.1250000E+00 -0.3750000E+00  0.4166667E-01  0.6944444E-02
      1         -2.339041   1.000000
      2         -0.962246   1.000000
      3         -0.773522   1.000000
      4         -0.522311   1.000000
      5          0.059482   1.000000
      6          0.481803   1.000000
      7          8.418767   0.000000
      8         15.757232   0.000000
      9         16.908644   0.000000
     10         19.480920   0.000000
 
 -0.2916667E+00 -0.2916667E+00  0.4166667E-01  0.3472222E-02
      1         -2.472802   1.000000
      2         -1.330365   1.000000
      3         -0.349008   1.000000
      4         -0.148377   1.000000
      5         -0.012710   1.000000
      6          0.032279   1.000000
      7         13.647447   0.000000
      8         13.839001   0.000000
      9         14.341975   0.000000
     10         17.519656   0.000000
 
 -0.2083333E+00 -0.2916667E+00  0.4166667E-01  0.6944444E-02
      1         -2.968777   1.000000
      2         -1.207913   1.000000
      3         -0.600411   1.000000
      4         -0.285008   1.000000
      5         -0.136126   1.000000
      6          0.049456   1.000000
      7         13.360329   0.000000
      8         14.661493   0.000000
      9         16.041778   0.000000
     10         18.786764   0.000000
 
 -0.1250000E+00 -0.2916667E+00  0.4166667E-01  0.6944444E-02
      1         -3.288013   1.000000
      2         -1.054909   1.000000
      3         -0.675858   1.000000
      4         -0.481455   1.000000
      5         -0.143088   1.000000
      6          0.048861   1.000000
      7         11.636860   0.000000
      8         15.954068   0.000000