       N       E                     dE             d eps       ncg     rms          rms(c)
DAV:   1    -0.369172141878E+03   -0.36917E+03   -0.94944E+03  3640   0.195E+03
DAV:   2    -0.400378212677E+03   -0.31206E+02   -0.30606E+02  3980   0.226E+02
DAV:   3    -0.400858204297E+03   -0.47999E+00   -0.47957E+00  4062   0.245E+01
DAV:   4    -0.400869666408E+03   -0.11462E-01   -0.11461E-01  4066   0.459E+00
DAV:   5    -0.400870188317E+03   -0.52191E-03   -0.52191E-03  4458   0.943E-01    0.687E+01
DAV:   6    -0.788320934594E+02    0.32204E+03   -0.18733E+02  3944   0.138E+02    0.356E+01
DAV:   7    -0.676490933342E+02    0.11183E+02   -0.10675E+03  4058   0.259E+02    0.583E+01
DAV:   8    -0.223874818313E+03   -0.15623E+03   -0.38482E+03  3656   0.130E+03    0.532E+01
DAV:   9    -0.741843182079E+02    0.14969E+03   -0.13557E+02  3784   0.120E+02    0.357E+01
DAV:  10    -0.292468469039E+02    0.44937E+02   -0.30139E+01  4030   0.703E+01    0.246E+01
DAV:  11    -0.286295174303E+02    0.61733E+00   -0.58792E-01  3834   0.577E+00    0.243E+01
DAV:  12    -0.275397125013E+02    0.10898E+01   -0.29501E-02  4006   0.238E+00    0.237E+01
DAV:  13    -0.494949205411E+01    0.22590E+02   -0.13016E+02  4012   0.128E+02    0.942E+00
DAV:  14    -0.470361466208E+01    0.24588E+00   -0.43372E+01  4006   0.946E+01    0.697E+00
DAV:  15    -0.386376427179E+01    0.83985E+00   -0.19435E+01  4040   0.619E+01    0.523E+00
DAV:  16    -0.359656306612E+01    0.26720E+00   -0.92887E+00  4018   0.428E+01    0.285E+00
DAV:  17    -0.343784426217E+01    0.15872E+00   -0.22694E+00  3998   0.214E+01    0.139E+00
DAV:  18    -0.342378177275E+01    0.14062E-01   -0.39605E-01  3970   0.887E+00    0.504E-01
DAV:  19    -0.343837927261E+01   -0.14597E-01   -0.30620E-01  3954   0.769E+00    0.103E+00
DAV:  20    -0.342439662512E+01    0.13983E-01   -0.34245E-02  4000   0.255E+00    0.513E-01
DAV:  21    -0.342271491798E+01    0.16817E-02   -0.13964E-03  3954   0.462E-01    0.385E-01
DAV:  22    -0.341989619610E+01    0.28187E-02   -0.13077E-02  4086   0.156E+00    0.716E-02
DAV:  23    -0.341985759126E+01    0.38605E-04   -0.56412E-05  1950   0.882E-02
   1 F= -.34198576E+01 E0= -.34198547E+01  d E =-.582996E-05
