<?xml version="1.0" encoding="ISO-8859-1"?>
<modeling>
 <generator>
  <i name="program" type="string">vasp </i>
  <i name="version" type="string">6.3.0  </i>
  <i name="subversion" type="string">20Jan22 (build Sep 29 2023 15:57:01) complex                          parallel </i>
  <i name="platform" type="string">LinuxIFC </i>
  <i name="date" type="string">2023 11 14 </i>
  <i name="time" type="string">18:02:08 </i>
 </generator>
 <incar>
  <i type="string" name="SYSTEM">fcc Cu</i>
  <i type="int" name="ISTART">     0</i>
  <i type="int" name="ICHARG">     0</i>
  <i name="ENCUT">    292.00000000</i>
  <i type="int" name="ISMEAR">     0</i>
  <i name="SIGMA">      0.02000000</i>
  <i type="string" name="GGA">91</i>
 </incar>
 <primitive_cell>
  <structure name="primitive_cell" >
   <crystal>
    <varray name="basis" >
     <v>       2.00000000       2.00000000       0.00000000 </v>
     <v>       0.00000000       2.00000000       2.00000000 </v>
     <v>       2.00000000       0.00000000       2.00000000 </v>
    </varray>
    <i name="volume">     16.00000000 </i>
    <varray name="rec_basis" >
     <v>       0.25000000       0.25000000      -0.25000000 </v>
     <v>      -0.25000000       0.25000000       0.25000000 </v>
     <v>       0.25000000      -0.25000000       0.25000000 </v>
    </varray>
   </crystal>
   <varray name="positions" >
    <v>       0.00000000       0.00000000       0.00000000 </v>
   </varray>
  </structure>
  <varray name="primitive_index" >
   <v type="int" >        1 </v>
  </varray>
 </primitive_cell>
 <kpoints>
  <generation param="Monkhorst-Pack">
   <v type="int" name="divisions">      12       12       12 </v>
   <v name="usershift">      0.00000000       0.00000000       0.00000000 </v>
   <v name="genvec1">      0.08333333       0.00000000       0.00000000 </v>
   <v name="genvec2">      0.00000000       0.08333333       0.00000000 </v>
   <v name="genvec3">      0.00000000       0.00000000       0.08333333 </v>
   <v name="shift">      0.50000000       0.50000000       0.50000000 </v>
  </generation>
  <varray name="kpointlist" >
   <v>       0.04166667       0.04166667       0.04166667 </v>
   <v>       0.12500000       0.04166667       0.04166667 </v>
   <v>       0.20833333       0.04166667       0.04166667 </v>
   <v>       0.29166667       0.04166667       0.04166667 </v>
   <v>       0.37500000       0.04166667       0.04166667 </v>
   <v>       0.45833333       0.04166667       0.04166667 </v>
   <v>      -0.45833333       0.04166667       0.04166667 </v>
   <v>      -0.37500000       0.04166667       0.04166667 </v>
   <v>      -0.29166667       0.04166667       0.04166667 </v>
   <v>      -0.20833333       0.04166667       0.04166667 </v>
   <v>      -0.12500000       0.04166667       0.04166667 </v>
   <v>      -0.04166667       0.04166667       0.04166667 </v>
   <v>       0.12500000       0.12500000       0.04166667 </v>
   <v>       0.20833333       0.12500000       0.04166667 </v>
   <v>       0.29166667       0.12500000       0.04166667 </v>
   <v>       0.37500000       0.12500000       0.04166667 </v>
   <v>       0.45833333       0.12500000       0.04166667 </v>
   <v>      -0.45833333       0.12500000       0.04166667 </v>
   <v>      -0.37500000       0.12500000       0.04166667 </v>
   <v>      -0.29166667       0.12500000       0.04166667 </v>
   <v>      -0.20833333       0.12500000       0.04166667 </v>
   <v>      -0.12500000       0.12500000       0.04166667 </v>
   <v>      -0.04166667       0.12500000       0.04166667 </v>
   <v>       0.20833333       0.20833333       0.04166667 </v>
   <v>       0.29166667       0.20833333       0.04166667 </v>
   <v>       0.37500000       0.20833333       0.04166667 </v>
   <v>       0.45833333       0.20833333       0.04166667 </v>
   <v>      -0.45833333       0.20833333       0.04166667 </v>
   <v>      -0.37500000       0.20833333       0.04166667 </v>
   <v>      -0.29166667       0.20833333       0.04166667 </v>
   <v>      -0.20833333       0.20833333       0.04166667 </v>
   <v>      -0.12500000       0.20833333       0.04166667 </v>
   <v>      -0.04166667       0.20833333       0.04166667 </v>
   <v>       0.29166667       0.29166667       0.04166667 </v>
   <v>       0.37500000       0.29166667       0.04166667 </v>
   <v>       0.45833333       0.29166667       0.04166667 </v>
   <v>      -0.45833333       0.29166667       0.04166667 </v>
   <v>      -0.37500000       0.29166667       0.04166667 </v>
   <v>      -0.29166667       0.29166667       0.04166667 </v>
   <v>      -0.20833333       0.29166667       0.04166667 </v>
   <v>      -0.12500000       0.29166667       0.04166667 </v>
   <v>      -0.04166667       0.29166667       0.04166667 </v>
   <v>       0.37500000       0.37500000       0.04166667 </v>
   <v>       0.45833333       0.37500000       0.04166667 </v>
   <v>      -0.45833333       0.37500000       0.04166667 </v>
   <v>      -0.37500000       0.37500000       0.04166667 </v>
   <v>      -0.29166667       0.37500000       0.04166667 </v>
   <v>      -0.20833333       0.37500000       0.04166667 </v>
   <v>      -0.12500000       0.37500000       0.04166667 </v>
   <v>      -0.04166667       0.37500000       0.04166667 </v>
   <v>       0.45833333       0.45833333       0.04166667 </v>
   <v>      -0.45833333       0.45833333       0.04166667 </v>
   <v>      -0.37500000       0.45833333       0.04166667 </v>
   <v>      -0.29166667       0.45833333       0.04166667 </v>
   <v>      -0.20833333       0.45833333       0.04166667 </v>
   <v>      -0.12500000       0.45833333       0.04166667 </v>
   <v>      -0.04166667       0.45833333       0.04166667 </v>
   <v>      -0.45833333      -0.45833333       0.04166667 </v>
   <v>      -0.37500000      -0.45833333       0.04166667 </v>
   <v>      -0.29166667      -0.45833333       0.04166667 </v>
   <v>      -0.20833333      -0.45833333       0.04166667 </v>
   <v>      -0.12500000      -0.45833333       0.04166667 </v>
   <v>      -0.37500000      -0.37500000       0.04166667 </v>
   <v>      -0.29166667      -0.37500000       0.04166667 </v>
   <v>      -0.20833333      -0.37500000       0.04166667 </v>
   <v>      -0.12500000      -0.37500000       0.04166667 </v>
   <v>      -0.29166667      -0.29166667       0.04166667 </v>
   <v>      -0.20833333      -0.29166667       0.04166667 </v>
   <v>      -0.12500000      -0.29166667       0.04166667 </v>
   <v>      -0.20833333      -0.20833333       0.04166667 </v>
   <v>      -0.12500000      -0.20833333       0.04166667 </v>
   <v>      -0.12500000      -0.12500000       0.04166667 </v>
   <v>       0.12500000       0.12500000       0.12500000 </v>
   <v>       0.20833333       0.12500000       0.12500000 </v>
   <v>       0.29166667       0.12500000       0.12500000 </v>
   <v>       0.37500000       0.12500000       0.12500000 </v>
   <v>       0.45833333       0.12500000       0.12500000 </v>
   <v>      -0.45833333       0.12500000       0.12500000 </v>
   <v>      -0.37500000       0.12500000       0.12500000 </v>
   <v>      -0.29166667       0.12500000       0.12500000 </v>
   <v>      -0.20833333       0.12500000       0.12500000 </v>
   <v>      -0.12500000       0.12500000       0.12500000 </v>
   <v>       0.20833333       0.20833333       0.12500000 </v>
   <v>       0.29166667       0.20833333       0.12500000 </v>
   <v>       0.37500000       0.20833333       0.12500000 </v>
   <v>       0.45833333       0.20833333       0.12500000 </v>
   <v>      -0.45833333       0.20833333       0.12500000 </v>
   <v>      -0.37500000       0.20833333       0.12500000 </v>
   <v>      -0.29166667       0.20833333       0.12500000 </v>
   <v>      -0.20833333       0.20833333       0.12500000 </v>
   <v>      -0.12500000       0.20833333       0.12500000 </v>
   <v>       0.29166667       0.29166667       0.12500000 </v>
   <v>       0.37500000       0.29166667       0.12500000 </v>
   <v>       0.45833333       0.29166667       0.12500000 </v>
   <v>      -0.45833333       0.29166667       0.12500000 </v>
   <v>      -0.37500000       0.29166667       0.12500000 </v>
   <v>      -0.29166667       0.29166667       0.12500000 </v>
   <v>      -0.20833333       0.29166667       0.12500000 </v>
   <v>      -0.12500000       0.29166667       0.12500000 </v>
   <v>       0.37500000       0.37500000       0.12500000 </v>
   <v>       0.45833333       0.37500000       0.12500000 </v>
   <v>      -0.45833333       0.37500000       0.12500000 </v>
   <v>      -0.37500000       0.37500000       0.12500000 </v>
   <v>      -0.29166667       0.37500000       0.12500000 </v>
   <v>      -0.20833333       0.37500000       0.12500000 </v>
   <v>      -0.12500000       0.37500000       0.12500000 </v>
   <v>       0.45833333       0.45833333       0.12500000 </v>
   <v>      -0.45833333       0.45833333       0.12500000 </v>
   <v>      -0.37500000       0.45833333       0.12500000 </v>
   <v>      -0.29166667       0.45833333       0.12500000 </v>
   <v>      -0.20833333       0.45833333       0.12500000 </v>
   <v>      -0.12500000       0.45833333       0.12500000 </v>
   <v>      -0.45833333      -0.45833333       0.12500000 </v>
   <v>      -0.37500000      -0.45833333       0.12500000 </v>
   <v>      -0.29166667      -0.45833333       0.12500000 </v>
   <v>      -0.20833333      -0.45833333       0.12500000 </v>
   <v>      -0.37500000      -0.37500000       0.12500000 </v>
   <v>      -0.29166667      -0.37500000       0.12500000 </v>
   <v>      -0.20833333      -0.37500000       0.12500000 </v>
   <v>      -0.29166667      -0.29166667       0.12500000 </v>
   <v>      -0.20833333      -0.29166667       0.12500000 </v>
   <v>      -0.20833333      -0.20833333       0.12500000 </v>
   <v>       0.20833333       0.20833333       0.20833333 </v>
   <v>       0.29166667       0.20833333       0.20833333 </v>
   <v>       0.37500000       0.20833333       0.20833333 </v>
   <v>       0.45833333       0.20833333       0.20833333 </v>
   <v>      -0.45833333       0.20833333       0.20833333 </v>
   <v>      -0.37500000       0.20833333       0.20833333 </v>
   <v>      -0.29166667       0.20833333       0.20833333 </v>
   <v>      -0.20833333       0.20833333       0.20833333 </v>
   <v>       0.29166667       0.29166667       0.20833333 </v>
   <v>       0.37500000       0.29166667       0.20833333 </v>
   <v>       0.45833333       0.29166667       0.20833333 </v>
   <v>      -0.45833333       0.29166667       0.20833333 </v>
   <v>      -0.37500000       0.29166667       0.20833333 </v>
   <v>      -0.29166667       0.29166667       0.20833333 </v>
   <v>      -0.20833333       0.29166667       0.20833333 </v>
   <v>       0.37500000       0.37500000       0.20833333 </v>
   <v>       0.45833333       0.37500000       0.20833333 </v>
   <v>      -0.45833333       0.37500000       0.20833333 </v>
   <v>      -0.37500000       0.37500000       0.20833333 </v>
   <v>      -0.29166667       0.37500000       0.20833333 </v>
   <v>      -0.20833333       0.37500000       0.20833333 </v>
   <v>       0.45833333       0.45833333       0.20833333 </v>
   <v>      -0.45833333       0.45833333       0.20833333 </v>
   <v>      -0.37500000       0.45833333       0.20833333 </v>
   <v>      -0.29166667       0.45833333       0.20833333 </v>
   <v>      -0.20833333       0.45833333       0.20833333 </v>
   <v>      -0.45833333      -0.45833333       0.20833333 </v>
   <v>      -0.37500000      -0.45833333       0.20833333 </v>
   <v>      -0.29166667      -0.45833333       0.20833333 </v>
   <v>      -0.37500000      -0.37500000       0.20833333 </v>
   <v>      -0.29166667      -0.37500000       0.20833333 </v>
   <v>      -0.29166667      -0.29166667       0.20833333 </v>
   <v>       0.29166667       0.29166667       0.29166667 </v>
   <v>       0.37500000       0.29166667       0.29166667 </v>
   <v>       0.45833333       0.29166667       0.29166667 </v>
   <v>      -0.45833333       0.29166667       0.29166667 </v>
   <v>      -0.37500000       0.29166667       0.29166667 </v>
   <v>      -0.29166667       0.29166667       0.29166667 </v>
   <v>       0.37500000       0.37500000       0.29166667 </v>
   <v>       0.45833333       0.37500000       0.29166667 </v>
   <v>      -0.45833333       0.37500000       0.29166667 </v>
   <v>      -0.37500000       0.37500000       0.29166667 </v>
   <v>      -0.29166667       0.37500000       0.29166667 </v>
   <v>       0.45833333       0.45833333       0.29166667 </v>
   <v>      -0.45833333       0.45833333       0.29166667 </v>
   <v>      -0.37500000       0.45833333       0.29166667 </v>
   <v>      -0.29166667       0.45833333       0.29166667 </v>
   <v>      -0.45833333      -0.45833333       0.29166667 </v>
   <v>      -0.37500000      -0.45833333       0.29166667 </v>
   <v>      -0.37500000      -0.37500000       0.29166667 </v>
   <v>       0.37500000       0.37500000       0.37500000 </v>
   <v>       0.45833333       0.37500000       0.37500000 </v>
   <v>      -0.45833333       0.37500000       0.37500000 </v>
   <v>      -0.37500000       0.37500000       0.37500000 </v>
   <v>       0.45833333       0.45833333       0.37500000 </v>
   <v>      -0.45833333       0.45833333       0.37500000 </v>
   <v>      -0.37500000       0.45833333       0.37500000 </v>
   <v>      -0.45833333      -0.45833333       0.37500000 </v>
   <v>       0.45833333       0.45833333       0.45833333 </v>
   <v>      -0.45833333       0.45833333       0.45833333 </v>
  </varray>
  <varray name="weights" >
   <v>       0.00115741 </v>
   <v>       0.00347222 </v>
   <v>       0.00347222 </v>
   <v>       0.00347222 </v>
   <v>       0.00347222 </v>
   <v>       0.00347222 </v>
   <v>       0.00347222 </v>
   <v>       0.00347222 </v>
   <v>       0.00347222 </v>
   <v>       0.00347222 </v>
   <v>       0.00347222 </v>
   <v>       0.00347222 </v>
   <v>       0.00347222 </v>
   <v>       0.00694444 </v>
   <v>       0.00694444 </v>
   <v>       0.00694444 </v>
   <v>       0.00694444 </v>
   <v>       0.00694444 </v>
   <v>       0.00694444 </v>
   <v>       0.00694444 </v>
   <v>       0.00694444 </v>
   <v>       0.00694444 </v>
   <v>       0.00694444 </v>
   <v>       0.00347222 </v>
   <v>       0.00694444 </v>
   <v>       0.00694444 </v>
   <v>       0.00694444 </v>
   <v>       0.00694444 </v>
   <v>       0.00694444 </v>
   <v>       0.00694444 </v>
   <v>       0.00694444 </v>
   <v>       0.00694444 </v>
   <v>       0.00694444 </v>
   <v>       0.00347222 </v>
   <v>       0.00694444 </v>
   <v>       0.00694444 </v>
   <v>       0.00694444 </v>
   <v>       0.00694444 </v>
   <v>       0.00694444 </v>
   <v>       0.00694444 </v>
   <v>       0.00694444 </v>
   <v>       0.00694444 </v>
   <v>       0.00347222 </v>
   <v>       0.00694444 </v>
   <v>       0.00694444 </v>
   <v>       0.00694444 </v>
   <v>       0.00694444 </v>
   <v>       0.00694444 </v>
   <v>       0.00694444 </v>
   <v>       0.00694444 </v>
   <v>       0.00347222 </v>
   <v>       0.00694444 </v>
   <v>       0.00694444 </v>
   <v>       0.00694444 </v>
   <v>       0.00694444 </v>
   <v>       0.00694444 </v>
   <v>       0.00694444 </v>
   <v>       0.00347222 </v>
   <v>       0.00694444 </v>
   <v>       0.00694444 </v>
   <v>       0.00694444 </v>
   <v>       0.00694444 </v>
   <v>       0.00347222 </v>
   <v>       0.00694444 </v>
   <v>       0.00694444 </v>
   <v>       0.00694444 </v>
   <v>       0.00347222 </v>
   <v>       0.00694444 </v>
   <v>       0.00694444 </v>
   <v>       0.00347222 </v>
   <v>       0.00694444 </v>
   <v>       0.00347222 </v>
   <v>       0.00115741 </v>
   <v>       0.00347222 </v>
   <v>       0.00347222 </v>
   <v>       0.00347222 </v>
   <v>       0.00347222 </v>
   <v>       0.00347222 </v>
   <v>       0.00347222 </v>
   <v>       0.00347222 </v>
   <v>       0.00347222 </v>
   <v>       0.00347222 </v>
   <v>       0.00347222 </v>
   <v>       0.00694444 </v>
   <v>       0.00694444 </v>
   <v>       0.00694444 </v>
   <v>       0.00694444 </v>
   <v>       0.00694444 </v>
   <v>       0.00694444 </v>
   <v>       0.00694444 </v>
   <v>       0.00694444 </v>
   <v>       0.00347222 </v>
   <v>       0.00694444 </v>
   <v>       0.00694444 </v>
   <v>       0.00694444 </v>
   <v>       0.00694444 </v>
   <v>       0.00694444 </v>
   <v>       0.00694444 </v>
   <v>       0.00694444 </v>
   <v>       0.00347222 </v>
   <v>       0.00694444 </v>
   <v>       0.00694444 </v>
   <v>       0.00694444 </v>
   <v>       0.00694444 </v>
   <v>       0.00694444 </v>
   <v>       0.00694444 </v>
   <v>       0.00347222 </v>
   <v>       0.00694444 </v>
   <v>       0.00694444 </v>
   <v>       0.00694444 </v>
   <v>       0.00694444 </v>
   <v>       0.00694444 </v>
   <v>       0.00347222 </v>
   <v>       0.00694444 </v>
   <v>       0.00694444 </v>
   <v>       0.00694444 </v>
   <v>       0.00347222 </v>
   <v>       0.00694444 </v>
   <v>       0.00694444 </v>
   <v>       0.00347222 </v>
   <v>       0.00694444 </v>
   <v>       0.00347222 </v>
   <v>       0.00115741 </v>
   <v>       0.00347222 </v>
   <v>       0.00347222 </v>
   <v>       0.00347222 </v>
   <v>       0.00347222 </v>
   <v>       0.00347222 </v>
   <v>       0.00347222 </v>
   <v>       0.00347222 </v>
   <v>       0.00347222 </v>
   <v>       0.00694444 </v>
   <v>       0.00694444 </v>
   <v>       0.00694444 </v>
   <v>       0.00694444 </v>
   <v>       0.00694444 </v>
   <v>       0.00694444 </v>
   <v>       0.00347222 </v>
   <v>       0.00694444 </v>
   <v>       0.00694444 </v>
   <v>       0.00694444 </v>
   <v>       0.00694444 </v>
   <v>       0.00694444 </v>
   <v>       0.00347222 </v>
   <v>       0.00694444 </v>
   <v>       0.00694444 </v>
   <v>       0.00694444 </v>
   <v>       0.00694444 </v>
   <v>       0.00347222 </v>
   <v>       0.00694444 </v>
   <v>       0.00694444 </v>
   <v>       0.00347222 </v>
   <v>       0.00694444 </v>
   <v>       0.00347222 </v>
   <v>       0.00115741 </v>
   <v>       0.00347222 </v>
   <v>       0.00347222 </v>
   <v>       0.00347222 </v>
   <v>       0.00347222 </v>
   <v>       0.00347222 </v>
   <v>       0.00347222 </v>
   <v>       0.00694444 </v>
   <v>       0.00694444 </v>
   <v>       0.00694444 </v>
   <v>       0.00694444 </v>
   <v>       0.00347222 </v>
   <v>       0.00694444 </v>
   <v>       0.00694444 </v>
   <v>       0.00694444 </v>
   <v>       0.00347222 </v>
   <v>       0.00694444 </v>
   <v>       0.00347222 </v>
   <v>       0.00115741 </v>
   <v>       0.00347222 </v>
   <v>       0.00347222 </v>
   <v>       0.00347222 </v>
   <v>       0.00347222 </v>
   <v>       0.00694444 </v>
   <v>       0.00694444 </v>
   <v>       0.00347222 </v>
   <v>       0.00115741 </v>
   <v>       0.00347222 </v>
  </varray>
 </kpoints>
 <parameters>
  <separator name="general" >
   <i type="string" name="SYSTEM">fcc Cu</i>
   <i type="logical" name="LCOMPAT"> F  </i>
  </separator>
  <separator name="electronic" >
   <i type="string" name="PREC">normal</i>
   <i name="ENMAX">    292.00000000</i>
   <i name="ENAUG">    516.45600000</i>
   <i name="EDIFF">      0.00010000</i>
   <i type="int" name="IALGO">    38</i>
   <i type="int" name="IWAVPR">    10</i>
   <i type="int" name="NBANDS">    10</i>
   <i type="int" name="NBANDSLOW">    -1</i>
   <i type="int" name="NBANDSHIGH">    -1</i>
   <i name="NELECT">     11.00000000</i>
   <i type="int" name="TURBO">     0</i>
   <i type="int" name="IRESTART">     0</i>
   <i type="int" name="NREBOOT">     0</i>
   <i type="int" name="NMIN">     0</i>
   <i name="EREF">      0.00000000</i>
   <separator name="electronic smearing" >
    <i type="int" name="ISMEAR">     0</i>
    <i name="SIGMA">      0.02000000</i>
    <i name="KSPACING">      0.50000000</i>
    <i type="logical" name="KGAMMA"> T  </i>
    <i type="logical" name="KBLOWUP"> T  </i>
   </separator>
   <separator name="electronic projectors" >
    <i type="logical" name="LREAL"> F  </i>
    <v name="ROPT">      0.00000000</v>
    <i type="int" name="LMAXPAW">  -100</i>
    <i type="int" name="LMAXMIX">     2</i>
    <i type="logical" name="NLSPLINE"> F  </i>
   </separator>
   <separator name="electronic startup" >
    <i type="int" name="ISTART">     0</i>
    <i type="int" name="ICHARG">     0</i>
    <i type="int" name="INIWAV">     1</i>
   </separator>
   <separator name="electronic spin" >
    <i type="int" name="ISPIN">     1</i>
    <i type="logical" name="LNONCOLLINEAR"> F  </i>
    <v name="MAGMOM">      1.00000000</v>
    <i name="NUPDOWN">     -1.00000000</i>
    <i type="logical" name="LSORBIT"> F  </i>
    <v name="SAXIS">      0.00000000      0.00000000      1.00000000</v>
    <i type="logical" name="LSPIRAL"> F  </i>
    <v name="QSPIRAL">      0.00000000      0.00000000      0.00000000</v>
    <i type="logical" name="LZEROZ"> F  </i>
   </separator>
   <separator name="electronic exchange-correlation" >
    <i type="logical" name="LASPH"> F  </i>
    <i type="logical" name="LMETAGGA"> F  </i>
   </separator>
   <separator name="electronic convergence" >
    <i type="int" name="NELM">    60</i>
    <i type="int" name="NELMDL">    -5</i>
    <i type="int" name="NELMIN">     2</i>
    <i name="ENINI">    292.00000000</i>
    <separator name="electronic convergence detail" >
     <i type="logical" name="LDIAG"> T  </i>
     <i type="logical" name="LSUBROT"> F  </i>
     <i name="WEIMIN">      0.00000000</i>
     <i name="EBREAK">      0.00000250</i>
     <i name="DEPER">      0.30000000</i>
     <i type="int" name="NRMM">     4</i>
     <i name="TIME">      0.40000000</i>
    </separator>
   </separator>
   <separator name="electronic mixer" >
    <i name="AMIX">      0.40000000</i>
    <i name="BMIX">      1.00000000</i>
    <i name="AMIN">      0.10000000</i>
    <i name="AMIX_MAG">      1.60000000</i>
    <i name="BMIX_MAG">      1.00000000</i>
    <separator name="electronic mixer details" >
     <i type="int" name="IMIX">     4</i>
     <i type="logical" name="MIXFIRST"> F  </i>
     <i type="int" name="MAXMIX">   -45</i>
     <i name="WC">    100.00000000</i>
     <i type="int" name="INIMIX">     1</i>
     <i type="int" name="MIXPRE">     1</i>
     <i type="int" name="MREMOVE">     5</i>
    </separator>
   </separator>
   <separator name="electronic dipolcorrection" >
    <i type="logical" name="LDIPOL"> F  </i>
    <i type="logical" name="LMONO"> F  </i>
    <i type="int" name="IDIPOL">     0</i>
    <i name="EPSILON">      1.00000000</i>
    <v name="DIPOL">   -100.00000000   -100.00000000   -100.00000000</v>
    <i name="EFIELD">      0.00000000</i>
   </separator>
  </separator>
  <separator name="grids" >
   <i type="int" name="NGX">    12</i>
   <i type="int" name="NGY">    12</i>
   <i type="int" name="NGZ">    12</i>
   <i type="int" name="NGXF">    24</i>
   <i type="int" name="NGYF">    24</i>
   <i type="int" name="NGZF">    24</i>
   <i type="logical" name="ADDGRID"> F  </i>
  </separator>
  <separator name="ionic" >
   <i type="int" name="NSW">     0</i>
   <i type="int" name="IBRION">    -1</i>
   <i type="int" name="MDALGO">     0</i>
   <i type="int" name="ISIF">     2</i>
   <i name="PSTRESS">      0.00000000</i>
   <i name="EDIFFG">      0.00100000</i>
   <i type="int" name="NFREE">     0</i>
   <i name="POTIM">      0.50000000</i>
   <i name="SMASS">     -3.00000000</i>
   <i name="SCALEE">      1.00000000</i>
  </separator>
  <separator name="ionic md" >
   <i name="TEBEG">      0.00010000</i>
   <i name="TEEND">      0.00010000</i>
   <i type="int" name="NBLOCK">     1</i>
   <i type="int" name="KBLOCK">     1</i>
   <i type="int" name="NPACO">   256</i>
   <i name="APACO">     10.00000000</i>
  </separator>
  <separator name="symmetry" >
   <i type="int" name="ISYM">     2</i>
   <i name="SYMPREC">      0.00001000</i>
  </separator>
  <separator name="dos" >
   <i type="int" name="LORBIT">     0</i>
   <v name="RWIGS">     -1.00000000</v>
   <i type="int" name="NEDOS">   301</i>
   <i name="EMIN">     10.00000000</i>
   <i name="EMAX">    -10.00000000</i>
   <i name="EFERMI">      0.00000000</i>
  </separator>
  <separator name="writing" >
   <i type="int" name="NWRITE">     2</i>
   <i type="logical" name="LWAVE"> T  </i>
   <i type="logical" name="LDOWNSAMPLE"> F  </i>
   <i type="logical" name="LCHARG"> T  </i>
   <i type="logical" name="LPARD"> F  </i>
   <i type="logical" name="LVTOT"> F  </i>
   <i type="logical" name="LVHAR"> F  </i>
   <i type="logical" name="LELF"> F  </i>
   <i type="logical" name="LOPTICS"> F  </i>
   <v name="STM">      0.00000000      0.00000000      0.00000000      0.00000000      0.00000000      0.00000000      0.00000000</v>
  </separator>
  <separator name="performance" >
   <i type="int" name="NPAR">     2</i>
   <i type="int" name="NSIM">     4</i>
   <i type="int" name="NBLK">    -1</i>
   <i type="logical" name="LPLANE"> T  </i>
   <i type="logical" name="LSCALAPACK"> T  </i>
   <i type="logical" name="LSCAAWARE"> F  </i>
   <i type="logical" name="LSCALU"> F  </i>
   <i type="logical" name="LASYNC"> F  </i>
   <i type="logical" name="LORBITALREAL"> F  </i>
  </separator>
  <separator name="miscellaneous" >
   <i type="int" name="IDIOT">     3</i>
   <i type="int" name="PHON_NSTRUCT">    -1</i>
   <i type="logical" name="LMUSIC"> F  </i>
   <v name="POMASS">     63.54600000</v>
   <v name="DARWINR">      0.00000000</v>
   <v name="DARWINV">      1.00000000</v>
   <i type="logical" name="LCORR"> T  </i>
  </separator>
  <i type="logical" name="GGA_COMPAT"> T  </i>
  <i type="logical" name="LBERRY"> F  </i>
  <i type="int" name="ICORELEVEL">     0</i>
  <i type="logical" name="LDAU"> F  </i>
  <i type="int" name="I_CONSTRAINED_M">     0</i>
  <separator name="electronic exchange-correlation" >
   <i type="string" name="GGA">91</i>
   <i type="int" name="VOSKOWN">     0</i>
   <i type="logical" name="LHFCALC"> F  </i>
   <i type="string" name="PRECFOCK"></i>
   <i type="logical" name="LSYMGRAD"> F  </i>
   <i type="logical" name="LHFONE"> F  </i>
   <i type="logical" name="LRHFCALC"> F  </i>
   <i type="logical" name="LTHOMAS"> F  </i>
   <i type="logical" name="LMODELHF"> F  </i>
   <i type="logical" name="LFOCKACE"> F  </i>
   <i name="ENCUT4O">     -1.00000000</i>
   <i type="int" name="EXXOEP">     0</i>
   <i type="int" name="FOURORBIT">     0</i>
   <i name="AEXX">      0.00000000</i>
   <i name="HFALPHA">      0.00000000</i>
   <i name="MCALPHA">      0.00000000</i>
   <i name="ALDAX">      1.00000000</i>
   <i name="AGGAX">      1.00000000</i>
   <i name="ALDAC">      1.00000000</i>
   <i name="AGGAC">      1.00000000</i>
   <i type="int" name="NKREDX">     1</i>
   <i type="int" name="NKREDY">     1</i>
   <i type="int" name="NKREDZ">     1</i>
   <i type="logical" name="SHIFTRED"> F  </i>
   <i type="logical" name="ODDONLY"> F  </i>
   <i type="logical" name="EVENONLY"> F  </i>
   <i type="int" name="LMAXFOCK">     0</i>
   <i type="int" name="NMAXFOCKAE">     0</i>
   <i type="logical" name="LFOCKAEDFT"> F  </i>
   <i name="HFSCREEN">      0.00000000</i>
   <i name="HFSCREENC">      0.00000000</i>
   <i type="int" name="NBANDSGWLOW">     0</i>
  </separator>
  <separator name="vdW DFT" >
   <i type="logical" name="LUSE_VDW"> F  </i>
   <i name="Zab_VDW">     -0.84910000</i>
   <i name="PARAM1">      0.12340000</i>
   <i name="PARAM2">      1.00000000</i>
   <i name="PARAM3">      0.00000000</i>
  </separator>
  <separator name="model GW" >
   <i type="int" name="MODEL_GW">     0</i>
   <i name="MODEL_EPS0">      9.60000000</i>
   <i name="MODEL_ALPHA">      1.00000000</i>
  </separator>
  <separator name="linear response parameters" >
   <i type="logical" name="LEPSILON"> F  </i>
   <i type="logical" name="LRPA"> F  </i>
   <i type="logical" name="LNABLA"> F  </i>
   <i type="logical" name="LVEL"> F  </i>
   <i name="CSHIFT">      0.10000000</i>
   <i name="OMEGAMAX">     -1.00000000</i>
   <i name="DEG_THRESHOLD">      0.00200000</i>
   <i name="RTIME">     -0.10000000</i>
   <i name="WPLASMAI">      0.00000000</i>
   <v name="DFIELD">      0.00000000      0.00000000      0.00000000</v>
   <v name="WPLASMA">      0.00000000      0.00000000      0.00000000      0.00000000      0.00000000      0.00000000      0.00000000      0.00000000      0.00000000</v>
  </separator>
  <separator name="orbital magnetization" >
   <i type="logical" name="NUCIND"> F  </i>
   <v name="MAGPOS">      0.00000000      0.00000000      0.00000000</v>
   <i type="logical" name="LNICSALL"> T  </i>
   <i type="logical" name="ORBITALMAG"> F  </i>
   <i type="logical" name="LMAGBLOCH"> F  </i>
   <i type="logical" name="LCHIMAG"> F  </i>
   <i type="logical" name="LGAUGE"> T  </i>
   <i type="int" name="MAGATOM">     0</i>
   <v name="MAGDIPOL">      0.00000000      0.00000000      0.00000000</v>
   <v name="AVECCONST">      0.00000000      0.00000000      0.00000000</v>
  </separator>
  <separator name="response functions" >
   <i type="logical" name="LFINITE_TEMPERATURE"> F  </i>
   <i type="logical" name="LADDER"> F  </i>
   <i type="logical" name="LRPAFORCE"> F  </i>
   <i type="logical" name="LFXC"> F  </i>
   <i type="logical" name="LHARTREE"> T  </i>
   <i type="int" name="IBSE">     0</i>
   <v type="int" name="KPOINT">    -1     0     0     0</v>
   <i type="logical" name="LTCTC"> F  </i>
   <i type="logical" name="LTCTE"> F  </i>
   <i type="logical" name="LTETE"> F  </i>
   <i type="logical" name="LTRIPLET"> F  </i>
   <i type="logical" name="LFXCEPS"> F  </i>
   <i type="logical" name="LFXHEG"> F  </i>
   <i type="int" name="NATURALO">     2</i>
   <i type="logical" name="LHOLEGF"> F  </i>
   <i type="logical" name="L2ORDER"> F  </i>
   <i type="logical" name="LDMP1"> F  </i>
   <i type="logical" name="LMP2LT"> F  </i>
   <i type="logical" name="LSMP2LT"> F  </i>
   <i type="logical" name="LGWLF"> F  </i>
   <i name="ENCUTGW">     -2.00000000</i>
   <i name="ENCUTGWSOFT">     -2.00000000</i>
   <i name="ENCUTLF">     -1.00000000</i>
   <i type="logical" name="LESF_SPLINES"> F  </i>
   <i type="int" name="LMAXMP2">    -1</i>
   <i name="SCISSOR">      0.00000000</i>
   <i type="int" name="NOMEGA">     0</i>
   <i type="int" name="NOMEGAR">     0</i>
   <i type="int" name="NBANDSGW">    -1</i>
   <i type="int" name="NBANDSO">    -1</i>
   <i type="int" name="NBANDSV">    -1</i>
   <i type="int" name="NELMGW">     1</i>
   <i type="int" name="NELMHF">     1</i>
   <i type="int" name="DIM">     3</i>
   <i type="int" name="IESPILON">     4</i>
   <i type="int" name="ANTIRES">     0</i>
   <i name="OMEGAMAX">    -30.00000000</i>
   <i name="OMEGAMIN">    -30.00000000</i>
   <i name="OMEGATL">   -200.00000000</i>
   <i type="int" name="OMEGAGRID">     0</i>
   <i name="CSHIFT">     -0.10000000</i>
   <i type="logical" name="LSELFENERGY"> F  </i>
   <i type="logical" name="LSPECTRAL"> F  </i>
   <i type="logical" name="LSPECTRALGW"> F  </i>
   <i type="logical" name="LSINGLES"> F  </i>
   <i type="logical" name="LFERMIGW"> F  </i>
   <i type="logical" name="ODDONLYGW"> F  </i>
   <i type="logical" name="EVENONLYGW"> F  </i>
   <i type="int" name="NKREDLFX">     1</i>
   <i type="int" name="NKREDLFY">     1</i>
   <i type="int" name="NKREDLFZ">     1</i>
   <i type="int" name="MAXMEM">  2800</i>
   <i type="int" name="TELESCOPE">     0</i>
   <i type="int" name="NTAUPAR">    -1</i>
   <i type="int" name="NOMEGAPAR">    -1</i>
   <i name="DAMP_NEWTON">      0.80000001</i>
   <i name="LAMBDA">      1.00000000</i>
  </separator>
  <separator name="External order field" >
   <i name="OFIELD_KAPPA">      0.00000000</i>
   <v name="OFIELD_K">      0.00000000      0.00000000      0.00000000</v>
   <i name="OFIELD_Q6_NEAR">      0.00000000</i>
   <i name="OFIELD_Q6_FAR">      0.00000000</i>
   <i name="OFIELD_A">      0.00000000</i>
  </separator>
  <separator name="optional k-points parameters" >
   <i type="int" name="KPOINTS_OPT_MODE">     1</i>
   <i type="logical" name="LKPOINTS_OPT"> F  </i>
  </separator>
 </parameters>
 <atominfo>
  <atoms>       1 </atoms>
  <types>       1 </types>
  <array name="atoms" >
   <dimension dim="1">ion</dimension>
   <field type="string">element</field>
   <field type="int">atomtype</field>
   <set>
    <rc><c>Cu</c><c>   1</c></rc>
   </set>
  </array>
  <array name="atomtypes" >
   <dimension dim="1">type</dimension>
   <field type="int">atomspertype</field>
   <field type="string">element</field>
   <field>mass</field>
   <field>valence</field>
   <field type="string">pseudopotential</field>
   <set>
    <rc><c>   1</c><c>Cu</c><c>     63.54600000</c><c>     11.00000000</c><c> PAW_GGA Cu 05Jan2001                   </c></rc>
   </set>
  </array>
 </atominfo>
 <structure name="initialpos" >
  <crystal>
   <varray name="basis" >
    <v>       2.00000000       2.00000000       0.00000000 </v>
    <v>       0.00000000       2.00000000       2.00000000 </v>
    <v>       2.00000000       0.00000000       2.00000000 </v>
   </varray>
   <i name="volume">     16.00000000 </i>
   <varray name="rec_basis" >
    <v>       0.25000000       0.25000000      -0.25000000 </v>
    <v>      -0.25000000       0.25000000       0.25000000 </v>
    <v>       0.25000000      -0.25000000       0.25000000 </v>
   </varray>
  </crystal>
  <varray name="positions" >
   <v>       0.00000000       0.00000000       0.00000000 </v>
  </varray>
 </structure>
 <calculation>
  <scstep>
   <time name="dav">    0.16    0.17</time>
   <time name="total">    0.17    0.17</time>
   <energy>
    <i name="alphaZ">     79.50324938 </i>
    <i name="ewald">   -998.56820046 </i>
    <i name="hartreedc">    -46.17882072 </i>
    <i name="XCdc">     26.04693401 </i>
    <i name="pawpsdc">    328.21625817 </i>
    <i name="pawaedc">   -336.01744596 </i>
    <i name="eentropy">     -0.00043503 </i>
    <i name="bandstr">   -815.21196969 </i>
    <i name="atom">   1393.03828842 </i>
    <i name="e_fr_energy">   -369.17214188 </i>
    <i name="e_wo_entrp">   -369.17170685 </i>
    <i name="e_0_energy">   -369.17192436 </i>
   </energy>
  </scstep>
  <scstep>
   <time name="dav">    0.17    0.17</time>
   <time name="total">    0.17    0.17</time>
   <energy>
    <i name="e_fr_energy">   -400.37821268 </i>
    <i name="e_wo_entrp">   -400.37766288 </i>
    <i name="e_0_energy">   -400.37793778 </i>
   </energy>
  </scstep>
  <scstep>
   <time name="dav">    0.17    0.18</time>
   <time name="total">    0.17    0.18</time>
   <energy>
    <i name="e_fr_energy">   -400.85820430 </i>
    <i name="e_wo_entrp">   -400.85762050 </i>
    <i name="e_0_energy">   -400.85791240 </i>
   </energy>
  </scstep>
  <scstep>
   <time name="dav">    0.17    0.17</time>
   <time name="total">    0.17    0.17</time>
   <energy>
    <i name="e_fr_energy">   -400.86966641 </i>
    <i name="e_wo_entrp">   -400.86908299 </i>
    <i name="e_0_energy">   -400.86937470 </i>
   </energy>
  </scstep>
  <scstep>
   <time name="dav">    0.18    0.18</time>
   <time name="total">    0.18    0.19</time>
   <energy>
    <i name="e_fr_energy">   -400.87018832 </i>
    <i name="e_wo_entrp">   -400.86960490 </i>
    <i name="e_0_energy">   -400.86989661 </i>
   </energy>
  </scstep>
  <scstep>
   <time name="dav">    0.16    0.16</time>
   <time name="total">    0.17    0.17</time>
   <energy>
    <i name="e_fr_energy">    -78.83209346 </i>
    <i name="e_wo_entrp">    -78.83200569 </i>
    <i name="e_0_energy">    -78.83204957 </i>
   </energy>
  </scstep>
  <scstep>
   <time name="dav">    0.17    0.17</time>
   <time name="total">    0.17    0.17</time>
   <energy>
    <i name="e_fr_energy">    -67.64909333 </i>
    <i name="e_wo_entrp">    -67.64851021 </i>
    <i name="e_0_energy">    -67.64880177 </i>
   </energy>
  </scstep>
  <scstep>
   <time name="dav">    0.16    0.16</time>
   <time name="total">    0.16    0.17</time>
   <energy>
    <i name="e_fr_energy">   -223.87481831 </i>
    <i name="e_wo_entrp">   -223.87460198 </i>
    <i name="e_0_energy">   -223.87471015 </i>
   </energy>
  </scstep>
  <scstep>
   <time name="dav">    0.16    0.16</time>
   <time name="total">    0.16    0.16</time>
   <energy>
    <i name="e_fr_energy">    -74.18431821 </i>
    <i name="e_wo_entrp">    -74.18425932 </i>
    <i name="e_0_energy">    -74.18428876 </i>
   </energy>
  </scstep>
  <scstep>
   <time name="dav">    0.16    0.17</time>
   <time name="total">    0.17    0.17</time>
   <energy>
    <i name="e_fr_energy">    -29.24684690 </i>
    <i name="e_wo_entrp">    -29.24678807 </i>
    <i name="e_0_energy">    -29.24681749 </i>
   </energy>
  </scstep>
  <scstep>
   <time name="dav">    0.16    0.16</time>
   <time name="total">    0.16    0.16</time>
   <energy>
    <i name="e_fr_energy">    -28.62951743 </i>
    <i name="e_wo_entrp">    -28.62945796 </i>
    <i name="e_0_energy">    -28.62948770 </i>
   </energy>
  </scstep>
  <scstep>
   <time name="dav">    0.17    0.17</time>
   <time name="total">    0.17    0.17</time>
   <energy>
    <i name="e_fr_energy">    -27.53971250 </i>
    <i name="e_wo_entrp">    -27.53965323 </i>
    <i name="e_0_energy">    -27.53968286 </i>
   </energy>
  </scstep>
  <scstep>
   <time name="dav">    0.17    0.17</time>
   <time name="total">    0.17    0.17</time>
   <energy>
    <i name="e_fr_energy">     -4.94949205 </i>
    <i name="e_wo_entrp">     -4.94914007 </i>
    <i name="e_0_energy">     -4.94931606 </i>
   </energy>
  </scstep>
  <scstep>
   <time name="dav">    0.16    0.16</time>
   <time name="total">    0.17    0.17</time>
   <energy>
    <i name="e_fr_energy">     -4.70361466 </i>
    <i name="e_wo_entrp">     -4.70349663 </i>
    <i name="e_0_energy">     -4.70355565 </i>
   </energy>
  </scstep>
  <scstep>
   <time name="dav">    0.17    0.17</time>
   <time name="total">    0.17    0.17</time>
   <energy>
    <i name="e_fr_energy">     -3.86376427 </i>
    <i name="e_wo_entrp">     -3.86367265 </i>
    <i name="e_0_energy">     -3.86371846 </i>
   </energy>
  </scstep>
  <scstep>
   <time name="dav">    0.17    0.17</time>
   <time name="total">    0.17    0.17</time>
   <energy>
    <i name="e_fr_energy">     -3.59656307 </i>
    <i name="e_wo_entrp">     -3.59647679 </i>
    <i name="e_0_energy">     -3.59651993 </i>
   </energy>
  </scstep>
  <scstep>
   <time name="dav">    0.16    0.16</time>
   <time name="total">    0.17    0.17</time>
   <energy>
    <i name="e_fr_energy">     -3.43784426 </i>
    <i name="e_wo_entrp">     -3.43782023 </i>
    <i name="e_0_energy">     -3.43783225 </i>
   </energy>
  </scstep>
  <scstep>
   <time name="dav">    0.16    0.16</time>
   <time name="total">    0.17    0.17</time>
   <energy>
    <i name="e_fr_energy">     -3.42378177 </i>
    <i name="e_wo_entrp">     -3.42374235 </i>
    <i name="e_0_energy">     -3.42376206 </i>
   </energy>
  </scstep>
  <scstep>
   <time name="dav">    0.16    0.16</time>
   <time name="total">    0.17    0.17</time>
   <energy>
    <i name="e_fr_energy">     -3.43837927 </i>
    <i name="e_wo_entrp">     -3.43836590 </i>
    <i name="e_0_energy">     -3.43837259 </i>
   </energy>
  </scstep>
  <scstep>
   <time name="dav">    0.16    0.16</time>
   <time name="total">    0.17    0.17</time>
   <energy>
    <i name="e_fr_energy">     -3.42439663 </i>
    <i name="e_wo_entrp">     -3.42439255 </i>
    <i name="e_0_energy">     -3.42439459 </i>
   </energy>
  </scstep>
  <scstep>
   <time name="dav">    0.16    0.16</time>
   <time name="total">    0.17    0.17</time>
   <energy>
    <i name="e_fr_energy">     -3.42271492 </i>
    <i name="e_wo_entrp">     -3.42271152 </i>
    <i name="e_0_energy">     -3.42271322 </i>
   </energy>
  </scstep>
  <scstep>
   <time name="dav">    0.18    0.18</time>
   <time name="total">    0.18    0.19</time>
   <energy>
    <i name="e_fr_energy">     -3.41989620 </i>
    <i name="e_wo_entrp">     -3.41989063 </i>
    <i name="e_0_energy">     -3.41989341 </i>
   </energy>
  </scstep>
  <scstep>
   <time name="dav">    0.11    0.11</time>
   <time name="total">    0.11    0.11</time>
   <energy>
    <i name="alphaZ">     79.50324938 </i>
    <i name="ewald">   -998.56820046 </i>
    <i name="hartreedc">   -366.76541584 </i>
    <i name="XCdc">     42.15477179 </i>
    <i name="pawpsdc">   1068.86941441 </i>
    <i name="pawaedc">  -1213.47241291 </i>
    <i name="eentropy">     -0.00000583 </i>
    <i name="bandstr">     -8.17954654 </i>
    <i name="atom">   1393.03828842 </i>
    <i name="e_fr_energy">     -3.41985759 </i>
    <i name="e_wo_entrp">     -3.41985176 </i>
    <i name="e_0_energy">     -3.41985468 </i>
   </energy>
  </scstep>
  <structure>
   <crystal>
    <varray name="basis" >
     <v>       2.00000000       2.00000000       0.00000000 </v>
     <v>       0.00000000       2.00000000       2.00000000 </v>
     <v>       2.00000000       0.00000000       2.00000000 </v>
    </varray>
    <i name="volume">     16.00000000 </i>
    <varray name="rec_basis" >
     <v>       0.25000000       0.25000000      -0.25000000 </v>
     <v>      -0.25000000       0.25000000       0.25000000 </v>
     <v>       0.25000000      -0.25000000       0.25000000 </v>
    </varray>
   </crystal>
   <varray name="positions" >
    <v>       0.00000000       0.00000000       0.00000000 </v>
   </varray>
  </structure>
  <varray name="forces" >
   <v>      -0.00000000       0.00000000       0.00000000 </v>
  </varray>
  <varray name="stress" >
   <v>    -279.48268651       0.00000000       0.00000000 </v>
   <v>       0.00000000    -279.48268651      -0.00000000 </v>
   <v>       0.00000000      -0.00000000    -279.48268651 </v>
  </varray>
  <energy>
   <i name="e_fr_energy">     -3.41985759 </i>
   <i name="e_wo_entrp">     -3.41985176 </i>
   <i name="e_0_energy">     -3.41985468 </i>
  </energy>
  <time name="totalsc">    4.02    4.06</time>
  <eigenvalues>
   <array>
    <dimension dim="1">band</dimension>
    <dimension dim="2">kpoint</dimension>
    <dimension dim="3">spin</dimension>
    <field>eigene</field>
    <field>occ</field>
    <set>
     <set comment="spin 1">
      <set comment="kpoint 1">
       <r>   -5.6663    1.0000 </r>
       <r>   -0.7451    1.0000 </r>
       <r>   -0.7295    1.0000 </r>
       <r>   -0.7295    1.0000 </r>
       <r>   -0.2233    1.0000 </r>
       <r>   -0.2233    1.0000 </r>
       <r>   21.0409    0.0000 </r>
       <r>   22.0353    0.0000 </r>
       <r>   22.0353    0.0000 </r>
       <r>   22.0501    0.0000 </r>
      </set>
      <set comment="kpoint 2">
       <r>   -5.3958    1.0000 </r>
       <r>   -0.7878    1.0000 </r>
       <r>   -0.6936    1.0000 </r>
       <r>   -0.6860    1.0000 </r>
       <r>   -0.2553    1.0000 </r>
       <r>   -0.2141    1.0000 </r>
       <r>   18.5688    0.0000 </r>
       <r>   19.9826    0.0000 </r>
       <r>   22.3403    0.0000 </r>
       <r>   22.3542    0.0000 </r>
      </set>
      <set comment="kpoint 3">
       <r>   -4.7371    1.0000 </r>
       <r>   -0.8586    1.0000 </r>
       <r>   -0.6344    1.0000 </r>
       <r>   -0.6311    1.0000 </r>
       <r>   -0.2718    1.0000 </r>
       <r>   -0.1850    1.0000 </r>
       <r>   14.7565    0.0000 </r>
       <r>   19.1101    0.0000 </r>
       <r>   21.7132    0.0000 </r>
       <r>   22.2640    0.0000 </r>
      </set>
      <set comment="kpoint 4">
       <r>   -3.7603    1.0000 </r>
       <r>   -0.8738    1.0000 </r>
       <r>   -0.6403    1.0000 </r>
       <r>   -0.6278    1.0000 </r>
       <r>   -0.1946    1.0000 </r>
       <r>   -0.0809    1.0000 </r>
       <r>   11.1869    0.0000 </r>
       <r>   18.5285    0.0000 </r>
       <r>   20.9839    0.0000 </r>
       <r>   21.7773    0.0000 </r>
      </set>
      <set comment="kpoint 5">
       <r>   -2.7268    1.0000 </r>
       <r>   -0.6961    1.0000 </r>
       <r>   -0.6794    1.0000 </r>
       <r>   -0.5918    1.0000 </r>
       <r>   -0.0473    1.0000 </r>
       <r>    0.0925    1.0000 </r>
       <r>    7.9663    0.0000 </r>
       <r>   18.2686    0.0000 </r>
       <r>   20.2491    0.0000 </r>
       <r>   21.1061    0.0000 </r>
      </set>
      <set comment="kpoint 6">
       <r>   -2.1834    1.0000 </r>
       <r>   -0.7438    1.0000 </r>
       <r>   -0.7249    1.0000 </r>
       <r>   -0.0234    1.0000 </r>
       <r>    0.0817    1.0000 </r>
       <r>    0.7187    1.0000 </r>
       <r>    5.2374    0.0000 </r>
       <r>   18.3542    0.0000 </r>
       <r>   19.5226    0.0000 </r>
       <r>   20.5191    0.0000 </r>
      </set>
      <set comment="kpoint 7">
       <r>   -2.0935    1.0000 </r>
       <r>   -0.7605    1.0000 </r>
       <r>   -0.7354    1.0000 </r>
       <r>    0.0393    1.0000 </r>
       <r>    0.1358    1.0000 </r>
       <r>    1.4595    1.0000 </r>
       <r>    4.0794    0.0000 </r>
       <r>   18.7832    0.0000 </r>
       <r>   18.9581    0.0000 </r>
       <r>   20.1855    0.0000 </r>
      </set>
      <set comment="kpoint 8">
       <r>   -2.2951    1.0000 </r>
       <r>   -0.7353    1.0000 </r>
       <r>   -0.7072    1.0000 </r>
       <r>   -0.1801    1.0000 </r>
       <r>    0.0973    1.0000 </r>
       <r>    0.3492    1.0000 </r>
       <r>    6.0713    0.0000 </r>
       <r>   18.6907    0.0000 </r>
       <r>   19.4223    0.0000 </r>
       <r>   20.2720    0.0000 </r>
      </set>
      <set comment="kpoint 9">
       <r>   -3.0443    1.0000 </r>
       <r>   -0.7515    1.0000 </r>
       <r>   -0.6778    1.0000 </r>
       <r>   -0.6562    1.0000 </r>
       <r>   -0.0532    1.0000 </r>
       <r>   -0.0137    1.0000 </r>
       <r>    8.9953    0.0000 </r>
       <r>   18.7663    0.0000 </r>
       <r>   19.8791    0.0000 </r>
       <r>   21.0880    0.0000 </r>
      </set>
      <set comment="kpoint 10">
       <r>   -4.1121    1.0000 </r>
       <r>   -0.8867    1.0000 </r>
       <r>   -0.6286    1.0000 </r>
       <r>   -0.6204    1.0000 </r>
       <r>   -0.2191    1.0000 </r>
       <r>   -0.1364    1.0000 </r>
       <r>   12.3427    0.0000 </r>
       <r>   19.1842    0.0000 </r>
       <r>   20.3028    0.0000 </r>
       <r>   22.1990    0.0000 </r>
      </set>
      <set comment="kpoint 11">
       <r>   -4.9972    1.0000 </r>
       <r>   -0.8384    1.0000 </r>
       <r>   -0.6478    1.0000 </r>
       <r>   -0.6454    1.0000 </r>
       <r>   -0.2746    1.0000 </r>
       <r>   -0.2006    1.0000 </r>
       <r>   16.0071    0.0000 </r>
       <r>   19.9219    0.0000 </r>
       <r>   20.8472    0.0000 </r>
       <r>   22.7466    0.0000 </r>
      </set>
      <set comment="kpoint 12">
       <r>   -5.5306    1.0000 </r>
       <r>   -0.7724    1.0000 </r>
       <r>   -0.7064    1.0000 </r>
       <r>   -0.7050    1.0000 </r>
       <r>   -0.2496    1.0000 </r>
       <r>   -0.2110    1.0000 </r>
       <r>   19.8450    0.0000 </r>
       <r>   20.9358    0.0000 </r>
       <r>   21.4576    0.0000 </r>
       <r>   22.2391    0.0000 </r>
      </set>
      <set comment="kpoint 13">
       <r>   -5.2614    1.0000 </r>
       <r>   -0.8287    1.0000 </r>
       <r>   -0.6574    1.0000 </r>
       <r>   -0.6566    1.0000 </r>
       <r>   -0.2985    1.0000 </r>
       <r>   -0.1873    1.0000 </r>
       <r>   18.6403    0.0000 </r>
       <r>   19.6482    0.0000 </r>
       <r>   20.6504    0.0000 </r>
       <r>   21.6813    0.0000 </r>
      </set>
      <set comment="kpoint 14">
       <r>   -4.7343    1.0000 </r>
       <r>   -0.9081    1.0000 </r>
       <r>   -0.6013    1.0000 </r>
       <r>   -0.5840    1.0000 </r>
       <r>   -0.3403    1.0000 </r>
       <r>   -0.1483    1.0000 </r>
       <r>   16.2081    0.0000 </r>
       <r>   17.6305    0.0000 </r>
       <r>   20.8556    0.0000 </r>
       <r>   22.2114    0.0000 </r>
      </set>
      <set comment="kpoint 15">
       <r>   -3.8632    1.0000 </r>
       <r>   -0.9726    1.0000 </r>
       <r>   -0.6307    1.0000 </r>
       <r>   -0.5474    1.0000 </r>
       <r>   -0.2506    1.0000 </r>
       <r>   -0.0485    1.0000 </r>
       <r>   12.5686    0.0000 </r>
       <r>   16.9282    0.0000 </r>
       <r>   20.3380    0.0000 </r>
       <r>   20.9010    0.0000 </r>
      </set>
      <set comment="kpoint 16">
       <r>   -2.8249    1.0000 </r>
       <r>   -0.9051    1.0000 </r>
       <r>   -0.7197    1.0000 </r>
       <r>   -0.5805    1.0000 </r>
       <r>   -0.0417    1.0000 </r>
       <r>    0.1692    1.0000 </r>
       <r>    9.2247    0.0000 </r>
       <r>   16.5942    0.0000 </r>
       <r>   19.0589    0.0000 </r>
       <r>   20.0313    0.0000 </r>
      </set>
      <set comment="kpoint 17">
       <r>   -2.1252    1.0000 </r>
       <r>   -0.7994    1.0000 </r>
       <r>   -0.6359    1.0000 </r>
       <r>   -0.5372    1.0000 </r>
       <r>    0.0983    1.0000 </r>
       <r>    0.8396    1.0000 </r>
       <r>    6.2847    0.0000 </r>
       <r>   16.6528    0.0000 </r>
       <r>   17.6263    0.0000 </r>
       <r>   19.9279    0.0000 </r>
      </set>
      <set comment="kpoint 18">
       <r>   -1.9486    1.0000 </r>
       <r>   -0.8302    1.0000 </r>
       <r>   -0.6616    1.0000 </r>
       <r>   -0.2924    1.0000 </r>
       <r>    0.1273    1.0000 </r>
       <r>    2.0625    0.0000 </r>
       <r>    4.1926    0.0000 </r>
       <r>   16.5451    0.0000 </r>
       <r>   17.1775    0.0000 </r>
       <r>   20.0793    0.0000 </r>
      </set>
      <set comment="kpoint 19">
       <r>   -2.0246    1.0000 </r>
       <r>   -0.8078    1.0000 </r>
       <r>   -0.6536    1.0000 </r>
       <r>   -0.3892    1.0000 </r>
       <r>    0.0661    1.0000 </r>
       <r>    1.2610    1.0000 </r>
       <r>    5.4354    0.0000 </r>
       <r>   15.9334    0.0000 </r>
       <r>   18.0728    0.0000 </r>
       <r>   20.4848    0.0000 </r>
      </set>
      <set comment="kpoint 20">
       <r>   -2.5203    1.0000 </r>
       <r>   -0.7900    1.0000 </r>
       <r>   -0.7390    1.0000 </r>
       <r>   -0.6056    1.0000 </r>
       <r>   -0.0801    1.0000 </r>
       <r>    0.3804    1.0000 </r>
       <r>    8.1985    0.0000 </r>
       <r>   15.7238    0.0000 </r>
       <r>   19.3860    0.0000 </r>
       <r>   21.0826    0.0000 </r>
      </set>
      <set comment="kpoint 21">
       <r>   -3.5183    1.0000 </r>
       <r>   -0.9556    1.0000 </r>
       <r>   -0.6596    1.0000 </r>
       <r>   -0.5551    1.0000 </r>
       <r>   -0.2584    1.0000 </r>
       <r>    0.0589    1.0000 </r>
       <r>   11.4223    0.0000 </r>
       <r>   15.9099    0.0000 </r>
       <r>   21.0630    0.0000 </r>
       <r>   21.7493    0.0000 </r>
      </set>
      <set comment="kpoint 22">
       <r>   -4.4782    1.0000 </r>
       <r>   -0.9160    1.0000 </r>
       <r>   -0.6161    1.0000 </r>
       <r>   -0.5711    1.0000 </r>
       <r>   -0.3378    1.0000 </r>
       <r>   -0.1113    1.0000 </r>
       <r>   14.9774    0.0000 </r>
       <r>   16.4708    0.0000 </r>
       <r>   22.3031    0.0000 </r>
       <r>   22.9885    0.0000 </r>
      </set>
      <set comment="kpoint 23">
       <r>   -5.1286    1.0000 </r>
       <r>   -0.8348    1.0000 </r>
       <r>   -0.6519    1.0000 </r>
       <r>   -0.6486    1.0000 </r>
       <r>   -0.2932    1.0000 </r>
       <r>   -0.1899    1.0000 </r>
       <r>   17.3474    0.0000 </r>
       <r>   18.7859    0.0000 </r>
       <r>   21.6902    0.0000 </r>
       <r>   22.6888    0.0000 </r>
      </set>
      <set comment="kpoint 24">
       <r>   -4.3482    1.0000 </r>
       <r>   -1.0055    1.0000 </r>
       <r>   -0.5195    1.0000 </r>
       <r>   -0.4942    1.0000 </r>
       <r>   -0.4025    1.0000 </r>
       <r>   -0.1121    1.0000 </r>
       <r>   16.4048    0.0000 </r>
       <r>   17.2142    0.0000 </r>
       <r>   19.1116    0.0000 </r>
       <r>   20.1970    0.0000 </r>
      </set>
      <set comment="kpoint 25">
       <r>   -3.6187    1.0000 </r>
       <r>   -1.1021    1.0000 </r>
       <r>   -0.5937    1.0000 </r>
       <r>   -0.3966    1.0000 </r>
       <r>   -0.2722    1.0000 </r>
       <r>   -0.0325    1.0000 </r>
       <r>   14.2093    0.0000 </r>
       <r>   15.5555    0.0000 </r>
       <r>   18.3064    0.0000 </r>
       <r>   19.3703    0.0000 </r>
      </set>
      <set comment="kpoint 26">
       <r>   -2.6832    1.0000 </r>
       <r>   -1.1443    1.0000 </r>
       <r>   -0.7185    1.0000 </r>
       <r>   -0.3994    1.0000 </r>
       <r>   -0.0098    1.0000 </r>
       <r>    0.2223    1.0000 </r>
       <r>   10.8174    0.0000 </r>
       <r>   15.0815    0.0000 </r>
       <r>   16.3725    0.0000 </r>
       <r>   19.0960    0.0000 </r>
      </set>
      <set comment="kpoint 27">
       <r>   -1.9404    1.0000 </r>
       <r>   -1.0528    1.0000 </r>
       <r>   -0.7859    1.0000 </r>
       <r>   -0.4460    1.0000 </r>
       <r>    0.1182    1.0000 </r>
       <r>    1.0336    1.0000 </r>
       <r>    7.7310    0.0000 </r>
       <r>   14.7429    0.0000 </r>
       <r>   15.0917    0.0000 </r>
       <r>   19.0422    0.0000 </r>
      </set>
      <set comment="kpoint 28">
       <r>   -1.6951    1.0000 </r>
       <r>   -0.9910    1.0000 </r>
       <r>   -0.6645    1.0000 </r>
       <r>   -0.4921    1.0000 </r>
       <r>    0.1334    1.0000 </r>
       <r>    2.5417    0.0000 </r>
       <r>    5.1153    0.0000 </r>
       <r>   13.5717    0.0000 </r>
       <r>   15.4704    0.0000 </r>
       <r>   19.2753    0.0000 </r>
      </set>
      <set comment="kpoint 29">
       <r>   -1.6768    1.0000 </r>
       <r>   -0.9604    1.0000 </r>
       <r>   -0.6499    1.0000 </r>
       <r>   -0.5106    1.0000 </r>
       <r>    0.0515    1.0000 </r>
       <r>    2.5655    0.0000 </r>
       <r>    5.1312    0.0000 </r>
       <r>   12.7713    0.0000 </r>
       <r>   16.3184    0.0000 </r>
       <r>   19.8344    0.0000 </r>
      </set>
      <set comment="kpoint 30">
       <r>   -1.8990    1.0000 </r>
       <r>   -0.8904    1.0000 </r>
       <r>   -0.8737    1.0000 </r>
       <r>   -0.4851    1.0000 </r>
       <r>   -0.1057    1.0000 </r>
       <r>    1.1609    1.0000 </r>
       <r>    7.7618    0.0000 </r>
       <r>   12.3848    0.0000 </r>
       <r>   17.5737    0.0000 </r>
       <r>   20.7523    0.0000 </r>
      </set>
      <set comment="kpoint 31">
       <r>   -2.6671    1.0000 </r>
       <r>   -1.0342    1.0000 </r>
       <r>   -0.7576    1.0000 </r>
       <r>   -0.4299    1.0000 </r>
       <r>   -0.3018    1.0000 </r>
       <r>    0.4407    1.0000 </r>
       <r>   10.8530    0.0000 </r>
       <r>   12.4195    0.0000 </r>
       <r>   19.1857    0.0000 </r>
       <r>   22.0093    0.0000 </r>
      </set>
      <set comment="kpoint 32">
       <r>   -3.6224    1.0000 </r>
       <r>   -0.9916    1.0000 </r>
       <r>   -0.6575    1.0000 </r>
       <r>   -0.4801    1.0000 </r>
       <r>   -0.3571    1.0000 </r>
       <r>    0.0807    1.0000 </r>
       <r>   12.8054    0.0000 </r>
       <r>   14.3298    0.0000 </r>
       <r>   21.0725    0.0000 </r>
       <r>   22.8168    0.0000 </r>
      </set>
      <set comment="kpoint 33">
       <r>   -4.3548    1.0000 </r>
       <r>   -0.9046    1.0000 </r>
       <r>   -0.6205    1.0000 </r>
       <r>   -0.5968    1.0000 </r>
       <r>   -0.2853    1.0000 </r>
       <r>   -0.1260    1.0000 </r>
       <r>   13.6083    0.0000 </r>
       <r>   17.9903    0.0000 </r>
       <r>   21.1127    0.0000 </r>
       <r>   22.7403    0.0000 </r>
      </set>
      <set comment="kpoint 34">
       <r>   -3.0744    1.0000 </r>
       <r>   -1.2240    1.0000 </r>
       <r>   -0.5017    1.0000 </r>
       <r>   -0.2690    1.0000 </r>
       <r>   -0.2024    1.0000 </r>
       <r>   -0.0166    1.0000 </r>
       <r>   14.5119    0.0000 </r>
       <r>   15.1746    0.0000 </r>
       <r>   15.9214    0.0000 </r>
       <r>   17.9491    0.0000 </r>
      </set>
      <set comment="kpoint 35">
       <r>   -2.3824    1.0000 </r>
       <r>   -1.3097    1.0000 </r>
       <r>   -0.5171    1.0000 </r>
       <r>   -0.1683    1.0000 </r>
       <r>   -0.0004    1.0000 </r>
       <r>    0.2336    1.0000 </r>
       <r>   12.6160    0.0000 </r>
       <r>   13.7813    0.0000 </r>
       <r>   13.9984    0.0000 </r>
       <r>   18.3153    0.0000 </r>
      </set>
      <set comment="kpoint 36">
       <r>   -1.8262    1.0000 </r>
       <r>   -1.3196    1.0000 </r>
       <r>   -0.6004    1.0000 </r>
       <r>   -0.2077    1.0000 </r>
       <r>    0.1298    1.0000 </r>
       <r>    1.2104    1.0000 </r>
       <r>    9.5270    0.0000 </r>
       <r>   12.1860    0.0000 </r>
       <r>   13.7243    0.0000 </r>
       <r>   18.2816    0.0000 </r>
      </set>
      <set comment="kpoint 37">
       <r>   -1.5531    1.0000 </r>
       <r>   -1.2444    1.0000 </r>
       <r>   -0.6722    1.0000 </r>
       <r>   -0.2688    1.0000 </r>
       <r>    0.1486    1.0000 </r>
       <r>    2.8440    0.0000 </r>
       <r>    6.7292    0.0000 </r>
       <r>   10.8634    0.0000 </r>
       <r>   14.0178    0.0000 </r>
       <r>   18.4554    0.0000 </r>
      </set>
      <set comment="kpoint 38">
       <r>   -1.4256    1.0000 </r>
       <r>   -1.1592    1.0000 </r>
       <r>   -0.7593    1.0000 </r>
       <r>   -0.3214    1.0000 </r>
       <r>    0.0674    1.0000 </r>
       <r>    4.2194    0.0000 </r>
       <r>    5.1236    0.0000 </r>
       <r>    9.9281    0.0000 </r>
       <r>   14.7762    0.0000 </r>
       <r>   18.9186    0.0000 </r>
      </set>
      <set comment="kpoint 39">
       <r>   -1.4301    1.0000 </r>
       <r>   -1.0478    1.0000 </r>
       <r>   -0.9358    1.0000 </r>
       <r>   -0.3503    1.0000 </r>
       <r>   -0.0757    1.0000 </r>
       <r>    2.4086    0.0000 </r>
       <r>    7.6063    0.0000 </r>
       <r>    9.4392    0.0000 </r>
       <r>   15.9492    0.0000 </r>
       <r>   19.7006    0.0000 </r>
      </set>
      <set comment="kpoint 40">
       <r>   -1.8526    1.0000 </r>
       <r>   -1.0188    1.0000 </r>
       <r>   -0.8933    1.0000 </r>
       <r>   -0.4026    1.0000 </r>
       <r>   -0.1910    1.0000 </r>
       <r>    1.1447    1.0000 </r>
       <r>    9.1246    0.0000 </r>
       <r>   10.7760    0.0000 </r>
       <r>   17.4708    0.0000 </r>
       <r>   20.7788    0.0000 </r>
      </set>
      <set comment="kpoint 41">
       <r>   -2.6134    1.0000 </r>
       <r>   -0.9568    1.0000 </r>
       <r>   -0.7507    1.0000 </r>
       <r>   -0.5244    1.0000 </r>
       <r>   -0.1924    1.0000 </r>
       <r>    0.4202    1.0000 </r>
       <r>    9.4679    0.0000 </r>
       <r>   14.0254    0.0000 </r>
       <r>   19.2560    0.0000 </r>
       <r>   21.6887    0.0000 </r>
      </set>
      <set comment="kpoint 42">
       <r>   -3.3191    1.0000 </r>
       <r>   -0.8778    1.0000 </r>
       <r>   -0.6660    1.0000 </r>
       <r>   -0.6162    1.0000 </r>
       <r>   -0.1506    1.0000 </r>
       <r>    0.0191    1.0000 </r>
       <r>   10.1477    0.0000 </r>
       <r>   17.5286    0.0000 </r>
       <r>   20.5543    0.0000 </r>
       <r>   21.1681    0.0000 </r>
      </set>
      <set comment="kpoint 43">
       <r>   -2.0833    1.0000 </r>
       <r>   -1.4252    1.0000 </r>
       <r>   -0.1099    1.0000 </r>
       <r>   -0.0370    1.0000 </r>
       <r>    0.0788    1.0000 </r>
       <r>    0.4218    1.0000 </r>
       <r>   11.7031    0.0000 </r>
       <r>   13.0931    0.0000 </r>
       <r>   13.6501    0.0000 </r>
       <r>   17.1809    0.0000 </r>
      </set>
      <set comment="kpoint 44">
       <r>   -1.8575    1.0000 </r>
       <r>   -1.4747    1.0000 </r>
       <r>   -0.1570    1.0000 </r>
       <r>    0.0318    1.0000 </r>
       <r>    0.1315    1.0000 </r>
       <r>    1.5241    0.9950 </r>
       <r>    9.9174    0.0000 </r>
       <r>   11.5732    0.0000 </r>
       <r>   12.7573    0.0000 </r>
       <r>   17.6789    0.0000 </r>
      </set>
      <set comment="kpoint 45">
       <r>   -1.6712    1.0000 </r>
       <r>   -1.4402    1.0000 </r>
       <r>   -0.3212    1.0000 </r>
       <r>   -0.0491    1.0000 </r>
       <r>    0.1735    1.0000 </r>
       <r>    3.1694    0.0000 </r>
       <r>    8.4389    0.0000 </r>
       <r>    8.9392    0.0000 </r>
       <r>   12.9116    0.0000 </r>
       <r>   17.8574    0.0000 </r>
      </set>
      <set comment="kpoint 46">
       <r>   -1.4948    1.0000 </r>
       <r>   -1.3349    1.0000 </r>
       <r>   -0.5503    1.0000 </r>
       <r>   -0.1394    1.0000 </r>
       <r>    0.1152    1.0000 </r>
       <r>    5.1070    0.0000 </r>
       <r>    6.2779    0.0000 </r>
       <r>    7.7498    0.0000 </r>
       <r>   13.5566    0.0000 </r>
       <r>   18.2163    0.0000 </r>
      </set>
      <set comment="kpoint 47">
       <r>   -1.3638    1.0000 </r>
       <r>   -1.1961    1.0000 </r>
       <r>   -0.7864    1.0000 </r>
       <r>   -0.2606    1.0000 </r>
       <r>    0.0290    1.0000 </r>
       <r>    4.1731    0.0000 </r>
       <r>    6.2716    0.0000 </r>
       <r>    8.4320    0.0000 </r>
       <r>   14.6359    0.0000 </r>
       <r>   18.8472    0.0000 </r>
      </set>
      <set comment="kpoint 48">
       <r>   -1.5371    1.0000 </r>
       <r>   -1.0160    1.0000 </r>
       <r>   -0.8158    1.0000 </r>
       <r>   -0.4213    1.0000 </r>
       <r>   -0.0158    1.0000 </r>
       <r>    2.4729    0.0000 </r>
       <r>    6.3056    0.0000 </r>
       <r>   11.0130    0.0000 </r>
       <r>   16.0727    0.0000 </r>
       <r>   19.7468    0.0000 </r>
      </set>
      <set comment="kpoint 49">
       <r>   -1.9638    1.0000 </r>
       <r>   -0.8430    1.0000 </r>
       <r>   -0.6702    1.0000 </r>
       <r>   -0.5697    1.0000 </r>
       <r>   -0.0126    1.0000 </r>
       <r>    1.1970    1.0000 </r>
       <r>    6.5144    0.0000 </r>
       <r>   14.1232    0.0000 </r>
       <r>   17.7771    0.0000 </r>
       <r>   20.6695    0.0000 </r>
      </set>
      <set comment="kpoint 50">
       <r>   -2.4088    1.0000 </r>
       <r>   -0.7352    1.0000 </r>
       <r>   -0.6701    1.0000 </r>
       <r>   -0.5104    1.0000 </r>
       <r>    0.0253    1.0000 </r>
       <r>    0.3295    1.0000 </r>
       <r>    7.0626    0.0000 </r>
       <r>   17.4283    0.0000 </r>
       <r>   19.5063    0.0000 </r>
       <r>   20.4139    0.0000 </r>
      </set>
      <set comment="kpoint 51">
       <r>   -1.8733    1.0000 </r>
       <r>   -1.5565    1.0000 </r>
       <r>    0.0957    1.0000 </r>
       <r>    0.1334    1.0000 </r>
       <r>    0.1804    1.0000 </r>
       <r>    2.3025    0.0000 </r>
       <r>    8.1626    0.0000 </r>
       <r>   12.2346    0.0000 </r>
       <r>   12.7495    0.0000 </r>
       <r>   16.7683    0.0000 </r>
      </set>
      <set comment="kpoint 52">
       <r>   -1.8108    1.0000 </r>
       <r>   -1.5538    1.0000 </r>
       <r>    0.0342    1.0000 </r>
       <r>    0.0854    1.0000 </r>
       <r>    0.2117    1.0000 </r>
       <r>    3.4588    0.0000 </r>
       <r>    7.0462    0.0000 </r>
       <r>   11.0742    0.0000 </r>
       <r>   12.2391    0.0000 </r>
       <r>   17.4133    0.0000 </r>
      </set>
      <set comment="kpoint 53">
       <r>   -1.6703    1.0000 </r>
       <r>   -1.4655    1.0000 </r>
       <r>   -0.2510    1.0000 </r>
       <r>   -0.0138    1.0000 </r>
       <r>    0.1775    1.0000 </r>
       <r>    4.1458    0.0000 </r>
       <r>    7.2653    0.0000 </r>
       <r>    8.6779    0.0000 </r>
       <r>   12.7448    0.0000 </r>
       <r>   17.7754    0.0000 </r>
      </set>
      <set comment="kpoint 54">
       <r>   -1.5055    1.0000 </r>
       <r>   -1.3060    1.0000 </r>
       <r>   -0.5964    1.0000 </r>
       <r>   -0.1897    1.0000 </r>
       <r>    0.1337    1.0000 </r>
       <r>    4.0032    0.0000 </r>
       <r>    6.4305    0.0000 </r>
       <r>    9.1344    0.0000 </r>
       <r>   13.7114    0.0000 </r>
       <r>   18.2960    0.0000 </r>
      </set>
      <set comment="kpoint 55">
       <r>   -1.5398    1.0000 </r>
       <r>   -1.0871    1.0000 </r>
       <r>   -0.7159    1.0000 </r>
       <r>   -0.4062    1.0000 </r>
       <r>    0.1088    1.0000 </r>
       <r>    3.6017    0.0000 </r>
       <r>    4.7702    0.0000 </r>
       <r>   11.6834    0.0000 </r>
       <r>   15.0552    0.0000 </r>
       <r>   19.0599    0.0000 </r>
      </set>
      <set comment="kpoint 56">
       <r>   -1.8171    1.0000 </r>
       <r>   -0.8942    1.0000 </r>
       <r>   -0.5946    1.0000 </r>
       <r>   -0.4699    1.0000 </r>
       <r>    0.1025    1.0000 </r>
       <r>    2.5261    0.0000 </r>
       <r>    4.3210    0.0000 </r>
       <r>   14.6336    0.0000 </r>
       <r>   16.6847    0.0000 </r>
       <r>   19.9522    0.0000 </r>
      </set>
      <set comment="kpoint 57">
       <r>   -2.0697    1.0000 </r>
       <r>   -0.7783    1.0000 </r>
       <r>   -0.7062    1.0000 </r>
       <r>   -0.1304    1.0000 </r>
       <r>    0.1192    1.0000 </r>
       <r>    1.3601    1.0000 </r>
       <r>    4.5848    0.0000 </r>
       <r>   17.7087    0.0000 </r>
       <r>   18.4457    0.0000 </r>
       <r>   20.2114    0.0000 </r>
      </set>
      <set comment="kpoint 58">
       <r>   -1.8640    1.0000 </r>
       <r>   -1.5845    1.0000 </r>
       <r>    0.1147    1.0000 </r>
       <r>    0.1797    1.0000 </r>
       <r>    0.2138    1.0000 </r>
       <r>    3.1951    0.0000 </r>
       <r>    6.9744    0.0000 </r>
       <r>   12.0572    0.0000 </r>
       <r>   12.5637    0.0000 </r>
       <r>   16.6876    0.0000 </r>
      </set>
      <set comment="kpoint 59">
       <r>   -1.8170    1.0000 </r>
       <r>   -1.5269    1.0000 </r>
       <r>   -0.0366    1.0000 </r>
       <r>    0.0788    1.0000 </r>
       <r>    0.1799    1.0000 </r>
       <r>    2.5515    0.0000 </r>
       <r>    8.2554    0.0000 </r>
       <r>   11.2414    0.0000 </r>
       <r>   12.4136    0.0000 </r>
       <r>   17.5008    0.0000 </r>
      </set>
      <set comment="kpoint 60">
       <r>   -1.6998    1.0000 </r>
       <r>   -1.3904    1.0000 </r>
       <r>   -0.4484    1.0000 </r>
       <r>   -0.1173    1.0000 </r>
       <r>    0.1598    1.0000 </r>
       <r>    2.1016    0.0000 </r>
       <r>    9.0574    0.0000 </r>
       <r>   10.3212    0.0000 </r>
       <r>   13.2402    0.0000 </r>
       <r>   18.0243    0.0000 </r>
      </set>
      <set comment="kpoint 61">
       <r>   -1.6819    1.0000 </r>
       <r>   -1.1548    1.0000 </r>
       <r>   -0.7468    1.0000 </r>
       <r>   -0.3582    1.0000 </r>
       <r>    0.1458    1.0000 </r>
       <r>    1.8316    0.0000 </r>
       <r>    7.1655    0.0000 </r>
       <r>   12.7552    0.0000 </r>
       <r>   14.4719    0.0000 </r>
       <r>   18.7021    0.0000 </r>
      </set>
      <set comment="kpoint 62">
       <r>   -1.8886    1.0000 </r>
       <r>   -0.8888    1.0000 </r>
       <r>   -0.6141    1.0000 </r>
       <r>   -0.5605    1.0000 </r>
       <r>    0.1315    1.0000 </r>
       <r>    1.5969    0.0051 </r>
       <r>    5.6333    0.0000 </r>
       <r>   15.5415    0.0000 </r>
       <r>   16.0319    0.0000 </r>
       <r>   19.5647    0.0000 </r>
      </set>
      <set comment="kpoint 63">
       <r>   -1.9207    1.0000 </r>
       <r>   -1.5023    1.0000 </r>
       <r>    0.0413    1.0000 </r>
       <r>    0.0487    1.0000 </r>
       <r>    0.1286    1.0000 </r>
       <r>    1.2639    1.0000 </r>
       <r>    9.8224    0.0000 </r>
       <r>   12.5833    0.0000 </r>
       <r>   13.1151    0.0000 </r>
       <r>   16.9318    0.0000 </r>
      </set>
      <set comment="kpoint 64">
       <r>   -2.0084    1.0000 </r>
       <r>   -1.4007    1.0000 </r>
       <r>   -0.3335    1.0000 </r>
       <r>   -0.0569    1.0000 </r>
       <r>    0.0771    1.0000 </r>
       <r>    0.7044    1.0000 </r>
       <r>   11.7263    0.0000 </r>
       <r>   12.1186    0.0000 </r>
       <r>   13.2613    0.0000 </r>
       <r>   17.9478    0.0000 </r>
      </set>
      <set comment="kpoint 65">
       <r>   -2.1540    1.0000 </r>
       <r>   -1.2347    1.0000 </r>
       <r>   -0.7055    1.0000 </r>
       <r>   -0.3055    1.0000 </r>
       <r>    0.0775    1.0000 </r>
       <r>    0.5869    1.0000 </r>
       <r>   10.1127    0.0000 </r>
       <r>   14.1546    0.0000 </r>
       <r>   14.4022    0.0000 </r>
       <r>   18.6360    0.0000 </r>
      </set>
      <set comment="kpoint 66">
       <r>   -2.3390    1.0000 </r>
       <r>   -0.9622    1.0000 </r>
       <r>   -0.7735    1.0000 </r>
       <r>   -0.5223    1.0000 </r>
       <r>    0.0595    1.0000 </r>
       <r>    0.4818    1.0000 </r>
       <r>    8.4188    0.0000 </r>
       <r>   15.7572    0.0000 </r>
       <r>   16.9086    0.0000 </r>
       <r>   19.4809    0.0000 </r>
      </set>
      <set comment="kpoint 67">
       <r>   -2.4728    1.0000 </r>
       <r>   -1.3304    1.0000 </r>
       <r>   -0.3490    1.0000 </r>
       <r>   -0.1484    1.0000 </r>
       <r>   -0.0127    1.0000 </r>
       <r>    0.0323    1.0000 </r>
       <r>   13.6474    0.0000 </r>
       <r>   13.8390    0.0000 </r>
       <r>   14.3420    0.0000 </r>
       <r>   17.5197    0.0000 </r>
      </set>
      <set comment="kpoint 68">
       <r>   -2.9688    1.0000 </r>
       <r>   -1.2079    1.0000 </r>
       <r>   -0.6004    1.0000 </r>
       <r>   -0.2850    1.0000 </r>
       <r>   -0.1361    1.0000 </r>
       <r>    0.0495    1.0000 </r>
       <r>   13.3603    0.0000 </r>
       <r>   14.6615    0.0000 </r>
       <r>   16.0418    0.0000 </r>
       <r>   18.7868    0.0000 </r>
      </set>
      <set comment="kpoint 69">
       <r>   -3.2880    1.0000 </r>
       <r>   -1.0549    1.0000 </r>
       <r>   -0.6759    1.0000 </r>
       <r>   -0.4815    1.0000 </r>
       <r>   -0.1431    1.0000 </r>
       <r>    0.0489    1.0000 </r>
       <r>   11.6369    0.0000 </r>
       <r>   15.9541    0.0000 </r>
       <r>   18.6084    0.0000 </r>
       <r>   19.6670    0.0000 </r>
      </set>
      <set comment="kpoint 70">
       <r>   -3.7357    1.0000 </r>
       <r>   -1.1132    1.0000 </r>
       <r>   -0.5212    1.0000 </r>
       <r>   -0.3871    1.0000 </r>
       <r>   -0.3351    1.0000 </r>
       <r>   -0.0655    1.0000 </r>
       <r>   15.4090    0.0000 </r>
       <r>   16.1361    0.0000 </r>
       <r>   18.1953    0.0000 </r>
       <r>   18.4816    0.0000 </r>
      </set>
      <set comment="kpoint 71">
       <r>   -4.2236    1.0000 </r>
       <r>   -0.9997    1.0000 </r>
       <r>   -0.5744    1.0000 </r>
       <r>   -0.4972    1.0000 </r>
       <r>   -0.3490    1.0000 </r>
       <r>   -0.0953    1.0000 </r>
       <r>   15.1600    0.0000 </r>
       <r>   16.5485    0.0000 </r>
       <r>   20.0636    0.0000 </r>
       <r>   20.6627    0.0000 </r>
      </set>
      <set comment="kpoint 72">
       <r>   -4.8638    1.0000 </r>
       <r>   -0.9083    1.0000 </r>
       <r>   -0.5877    1.0000 </r>
       <r>   -0.5855    1.0000 </r>
       <r>   -0.3603    1.0000 </r>
       <r>   -0.1536    1.0000 </r>
       <r>   17.4866    0.0000 </r>
       <r>   18.3914    0.0000 </r>
       <r>   19.8432    0.0000 </r>
       <r>   20.9277    0.0000 </r>
      </set>
      <set comment="kpoint 73">
       <r>   -5.2621    1.0000 </r>
       <r>   -0.7996    1.0000 </r>
       <r>   -0.6777    1.0000 </r>
       <r>   -0.6777    1.0000 </r>
       <r>   -0.2365    1.0000 </r>
       <r>   -0.2365    1.0000 </r>
       <r>   17.2472    0.0000 </r>
       <r>   21.2158    0.0000 </r>
       <r>   21.2158    0.0000 </r>
       <r>   21.9398    0.0000 </r>
      </set>
      <set comment="kpoint 74">
       <r>   -4.8656    1.0000 </r>
       <r>   -0.8614    1.0000 </r>
       <r>   -0.6326    1.0000 </r>
       <r>   -0.6259    1.0000 </r>
       <r>   -0.3079    1.0000 </r>
       <r>   -0.1675    1.0000 </r>
       <r>   16.1163    0.0000 </r>
       <r>   17.6009    0.0000 </r>
       <r>   22.8501    0.0000 </r>
       <r>   22.9395    0.0000 </r>
      </set>
      <set comment="kpoint 75">
       <r>   -4.1029    1.0000 </r>
       <r>   -0.9428    1.0000 </r>
       <r>   -0.6288    1.0000 </r>
       <r>   -0.5365    1.0000 </r>
       <r>   -0.3587    1.0000 </r>
       <r>   -0.0317    1.0000 </r>
       <r>   13.8395    0.0000 </r>
       <r>   15.3544    0.0000 </r>
       <r>   22.7238    0.0000 </r>
       <r>   23.3150    0.0000 </r>
      </set>
      <set comment="kpoint 76">
       <r>   -3.0888    1.0000 </r>
       <r>   -0.9481    1.0000 </r>
       <r>   -0.6904    1.0000 </r>
       <r>   -0.5534    1.0000 </r>
       <r>   -0.2512    1.0000 </r>
       <r>    0.2090    1.0000 </r>
       <r>   10.3870    0.0000 </r>
       <r>   14.9209    0.0000 </r>
       <r>   20.9753    0.0000 </r>
       <r>   21.7856    0.0000 </r>
      </set>
      <set comment="kpoint 77">
       <r>   -2.2225    1.0000 </r>
       <r>   -0.7824    1.0000 </r>
       <r>   -0.6806    1.0000 </r>
       <r>   -0.6113    1.0000 </r>
       <r>   -0.0724    1.0000 </r>
       <r>    0.6948    1.0000 </r>
       <r>    7.2948    0.0000 </r>
       <r>   14.8761    0.0000 </r>
       <r>   19.3552    0.0000 </r>
       <r>   20.5626    0.0000 </r>
      </set>
      <set comment="kpoint 78">
       <r>   -1.9240    1.0000 </r>
       <r>   -0.8389    1.0000 </r>
       <r>   -0.6407    1.0000 </r>
       <r>   -0.3762    1.0000 </r>
       <r>    0.0743    1.0000 </r>
       <r>    1.8543    0.0000 </r>
       <r>    4.7551    0.0000 </r>
       <r>   15.2368    0.0000 </r>
       <r>   18.1033    0.0000 </r>
       <r>   19.7049    0.0000 </r>
      </set>
      <set comment="kpoint 79">
       <r>   -1.9277    1.0000 </r>
       <r>   -0.8503    1.0000 </r>
       <r>   -0.6307    1.0000 </r>
       <r>   -0.4184    1.0000 </r>
       <r>    0.1421    1.0000 </r>
       <r>    1.8397    0.0000 </r>
       <r>    4.7477    0.0000 </r>
       <r>   16.0148    0.0000 </r>
       <r>   17.2804    0.0000 </r>
       <r>   19.1982    0.0000 </r>
      </set>
      <set comment="kpoint 80">
       <r>   -2.2311    1.0000 </r>
       <r>   -0.8265    1.0000 </r>
       <r>   -0.7233    1.0000 </r>
       <r>   -0.5892    1.0000 </r>
       <r>    0.1145    1.0000 </r>
       <r>    0.5891    1.0000 </r>
       <r>    7.2824    0.0000 </r>
       <r>   16.9118    0.0000 </r>
       <r>   17.2023    0.0000 </r>
       <r>   19.0053    0.0000 </r>
      </set>
      <set comment="kpoint 81">
       <r>   -3.0924    1.0000 </r>
       <r>   -0.9973    1.0000 </r>
       <r>   -0.6960    1.0000 </r>
       <r>   -0.5414    1.0000 </r>
       <r>   -0.0053    1.0000 </r>
       <r>    0.0154    1.0000 </r>
       <r>   10.3725    0.0000 </r>
       <r>   16.9913    0.0000 </r>
       <r>   18.7586    0.0000 </r>
       <r>   19.1057    0.0000 </r>
      </set>
      <set comment="kpoint 82">
       <r>   -4.1019    1.0000 </r>
       <r>   -0.9896    1.0000 </r>
       <r>   -0.5961    1.0000 </r>
       <r>   -0.5304    1.0000 </r>
       <r>   -0.2863    1.0000 </r>
       <r>   -0.0930    1.0000 </r>
       <r>   13.8207    0.0000 </r>
       <r>   17.4944    0.0000 </r>
       <r>   19.3800    0.0000 </r>
       <r>   20.7414    0.0000 </r>
      </set>
      <set comment="kpoint 83">
       <r>   -4.6067    1.0000 </r>
       <r>   -0.9045    1.0000 </r>
       <r>   -0.6072    1.0000 </r>
       <r>   -0.5961    1.0000 </r>
       <r>   -0.3076    1.0000 </r>
       <r>   -0.1515    1.0000 </r>
       <r>   14.8632    0.0000 </r>
       <r>   18.6658    0.0000 </r>
       <r>   20.0860    0.0000 </r>
       <r>   22.8928    0.0000 </r>
      </set>
      <set comment="kpoint 84">
       <r>   -3.9786    1.0000 </r>
       <r>   -0.9926    1.0000 </r>
       <r>   -0.6229    1.0000 </r>
       <r>   -0.4933    1.0000 </r>
       <r>   -0.3348    1.0000 </r>
       <r>   -0.0327    1.0000 </r>
       <r>   13.9384    0.0000 </r>
       <r>   15.4287    0.0000 </r>
       <r>   20.8365    0.0000 </r>
       <r>   21.5684    0.0000 </r>
      </set>
      <set comment="kpoint 85">
       <r>   -3.0647    1.0000 </r>
       <r>   -1.0571    1.0000 </r>
       <r>   -0.7182    1.0000 </r>
       <r>   -0.4085    1.0000 </r>
       <r>   -0.2941    1.0000 </r>
       <r>    0.2311    1.0000 </r>
       <r>   11.8790    0.0000 </r>
       <r>   13.4107    0.0000 </r>
       <r>   18.8227    0.0000 </r>
       <r>   22.3649    0.0000 </r>
      </set>
      <set comment="kpoint 86">
       <r>   -2.1545    1.0000 </r>
       <r>   -0.9854    1.0000 </r>
       <r>   -0.8336    1.0000 </r>
       <r>   -0.4615    1.0000 </r>
       <r>   -0.0960    1.0000 </r>
       <r>    0.7577    1.0000 </r>
       <r>    8.6650    0.0000 </r>
       <r>   13.2384    0.0000 </r>
       <r>   17.1238    0.0000 </r>
       <r>   21.7073    0.0000 </r>
      </set>
      <set comment="kpoint 87">
       <r>   -1.7511    1.0000 </r>
       <r>   -0.9342    1.0000 </r>
       <r>   -0.7045    1.0000 </r>
       <r>   -0.5069    1.0000 </r>
       <r>    0.0512    1.0000 </r>
       <r>    1.9246    0.0000 </r>
       <r>    5.8572    0.0000 </r>
       <r>   13.4800    0.0000 </r>
       <r>   15.7878    0.0000 </r>
       <r>   21.0958    0.0000 </r>
      </set>
      <set comment="kpoint 88">
       <r>   -1.7003    1.0000 </r>
       <r>   -0.9653    1.0000 </r>
       <r>   -0.6062    1.0000 </r>
       <r>   -0.5217    1.0000 </r>
       <r>    0.1108    1.0000 </r>
       <r>    2.9225    0.0000 </r>
       <r>    4.4578    0.0000 </r>
       <r>   14.1170    0.0000 </r>
       <r>   14.8665    0.0000 </r>
       <r>   20.6706    0.0000 </r>
      </set>
      <set comment="kpoint 89">
       <r>   -1.8371    1.0000 </r>
       <r>   -0.9500    1.0000 </r>
       <r>   -0.7861    1.0000 </r>
       <r>   -0.4815    1.0000 </r>
       <r>    0.0816    1.0000 </r>
       <r>    1.4175    1.0000 </r>
       <r>    6.7274    0.0000 </r>
       <r>   14.2601    0.0000 </r>
       <r>   15.2632    0.0000 </r>
       <r>   20.4972    0.0000 </r>
      </set>
      <set comment="kpoint 90">
       <r>   -2.4316    1.0000 </r>
       <r>   -1.0768    1.0000 </r>
       <r>   -0.7838    1.0000 </r>
       <r>   -0.4308    1.0000 </r>
       <r>   -0.0567    1.0000 </r>
       <r>    0.4596    1.0000 </r>
       <r>    9.6846    0.0000 </r>
       <r>   14.1715    0.0000 </r>
       <r>   16.7025    0.0000 </r>
       <r>   20.5753    0.0000 </r>
      </set>
      <set comment="kpoint 91">
       <r>   -3.3905    1.0000 </r>
       <r>   -1.0820    1.0000 </r>
       <r>   -0.6653    1.0000 </r>
       <r>   -0.4011    1.0000 </r>
       <r>   -0.2652    1.0000 </r>
       <r>    0.0703    1.0000 </r>
       <r>   13.0042    0.0000 </r>
       <r>   14.4858    0.0000 </r>
       <r>   18.5163    0.0000 </r>
       <r>   20.8640    0.0000 </r>
      </set>
      <set comment="kpoint 92">
       <r>   -3.5062    1.0000 </r>
       <r>   -1.0863    1.0000 </r>
       <r>   -0.6272    1.0000 </r>
       <r>   -0.4492    1.0000 </r>
       <r>   -0.1753    1.0000 </r>
       <r>   -0.0307    1.0000 </r>
       <r>   12.8837    0.0000 </r>
       <r>   16.4284    0.0000 </r>
       <r>   18.3972    0.0000 </r>
       <r>   18.7811    0.0000 </r>
      </set>
      <set comment="kpoint 93">
       <r>   -2.7660    1.0000 </r>
       <r>   -1.1765    1.0000 </r>
       <r>   -0.7050    1.0000 </r>
       <r>   -0.2964    1.0000 </r>
       <r>   -0.1520    1.0000 </r>
       <r>    0.2256    1.0000 </r>
       <r>   12.1770    0.0000 </r>
       <r>   13.6476    0.0000 </r>
       <r>   16.2678    0.0000 </r>
       <r>   20.2524    0.0000 </r>
      </set>
      <set comment="kpoint 94">
       <r>   -1.9868    1.0000 </r>
       <r>   -1.2069    1.0000 </r>
       <r>   -0.8241    1.0000 </r>
[...]
       <r>   -0.7065    1.0000 </r>
       <r>   -0.7065    1.0000 </r>
       <r>   -0.2719    1.0000 </r>
       <r>    0.0354    1.0000 </r>
       <r>    0.0354    1.0000 </r>
       <r>    6.9507    0.0000 </r>
       <r>   19.4950    0.0000 </r>
       <r>   19.4950    0.0000 </r>
       <r>   20.8742    0.0000 </r>
      </set>
      <set comment="kpoint 174">
       <r>   -2.2066    1.0000 </r>
       <r>   -0.7576    1.0000 </r>
       <r>   -0.6793    1.0000 </r>
       <r>   -0.3648    1.0000 </r>
       <r>    0.0144    1.0000 </r>
       <r>    0.6767    1.0000 </r>
       <r>    6.1806    0.0000 </r>
       <r>   16.6583    0.0000 </r>
       <r>   19.4910    0.0000 </r>
       <r>   20.5307    0.0000 </r>
      </set>
      <set comment="kpoint 175">
       <r>   -1.8122    1.0000 </r>
       <r>   -0.8883    1.0000 </r>
       <r>   -0.6150    1.0000 </r>
       <r>   -0.5620    1.0000 </r>
       <r>    0.0066    1.0000 </r>
       <r>    1.7913    0.0000 </r>
       <r>    5.7547    0.0000 </r>
       <r>   13.3921    0.0000 </r>
       <r>   17.7722    0.0000 </r>
       <r>   19.5774    0.0000 </r>
      </set>
      <set comment="kpoint 176">
       <r>   -1.4706    1.0000 </r>
       <r>   -1.0773    1.0000 </r>
       <r>   -0.7771    1.0000 </r>
       <r>   -0.3844    1.0000 </r>
       <r>    0.0198    1.0000 </r>
       <r>    3.2808    0.0000 </r>
       <r>    5.6431    0.0000 </r>
       <r>   10.4090    0.0000 </r>
       <r>   16.0500    0.0000 </r>
       <r>   18.6171    0.0000 </r>
      </set>
      <set comment="kpoint 177">
       <r>   -2.1035    1.0000 </r>
       <r>   -0.7830    1.0000 </r>
       <r>   -0.6811    1.0000 </r>
       <r>   -0.2904    1.0000 </r>
       <r>    0.1331    1.0000 </r>
       <r>    1.0165    1.0000 </r>
       <r>    5.3328    0.0000 </r>
       <r>   17.9381    0.0000 </r>
       <r>   17.9797    0.0000 </r>
       <r>   19.5586    0.0000 </r>
      </set>
      <set comment="kpoint 178">
       <r>   -1.8582    1.0000 </r>
       <r>   -0.8799    1.0000 </r>
       <r>   -0.6010    1.0000 </r>
       <r>   -0.4860    1.0000 </r>
       <r>    0.1050    1.0000 </r>
       <r>    2.0461    0.0000 </r>
       <r>    4.8404    0.0000 </r>
       <r>   15.2958    0.0000 </r>
       <r>   16.1455    0.0000 </r>
       <r>   20.6239    0.0000 </r>
      </set>
      <set comment="kpoint 179">
       <r>   -1.5490    1.0000 </r>
       <r>   -1.0501    1.0000 </r>
       <r>   -0.7205    1.0000 </r>
       <r>   -0.4381    1.0000 </r>
       <r>    0.0878    1.0000 </r>
       <r>    3.4544    0.0000 </r>
       <r>    4.6946    0.0000 </r>
       <r>   12.2645    0.0000 </r>
       <r>   14.4630    0.0000 </r>
       <r>   20.6418    0.0000 </r>
      </set>
      <set comment="kpoint 180">
       <r>   -1.7627    1.0000 </r>
       <r>   -0.9308    1.0000 </r>
       <r>   -0.5590    1.0000 </r>
       <r>   -0.5456    1.0000 </r>
       <r>    0.1227    1.0000 </r>
       <r>    2.7261    0.0000 </r>
       <r>    4.3834    0.0000 </r>
       <r>   14.0502    0.0000 </r>
       <r>   16.7406    0.0000 </r>
       <r>   18.9330    0.0000 </r>
      </set>
      <set comment="kpoint 181">
       <r>   -2.1475    1.0000 </r>
       <r>   -0.7437    1.0000 </r>
       <r>   -0.7437    1.0000 </r>
       <r>    0.1232    1.0000 </r>
       <r>    0.1232    1.0000 </r>
       <r>    0.9986    1.0000 </r>
       <r>    4.5065    0.0000 </r>
       <r>   19.3371    0.0000 </r>
       <r>   19.3371    0.0000 </r>
       <r>   20.6283    0.0000 </r>
      </set>
      <set comment="kpoint 182">
       <r>   -2.0192    1.0000 </r>
       <r>   -0.7935    1.0000 </r>
       <r>   -0.6998    1.0000 </r>
       <r>   -0.1457    1.0000 </r>
       <r>    0.1189    1.0000 </r>
       <r>    1.7917    0.0000 </r>
       <r>    4.1353    0.0000 </r>
       <r>   17.1146    0.0000 </r>
       <r>   18.5154    0.0000 </r>
       <r>   19.8829    0.0000 </r>
      </set>
     </set>
    </set>
   </array>
  </eigenvalues>
  <separator name="orbital magnetization" >
   <v name="MAGDIPOLOUT">      0.00000000      0.00000000      0.00000000</v>
  </separator>
  <dos>
   <i name="efermi">      1.56049596 </i>
   <total>
    <array>
     <dimension dim="1">gridpoints</dimension>
     <dimension dim="2">spin</dimension>
     <field>energy</field>
     <field>total</field>
     <field>integrated</field>
     <set>
      <set comment="spin 1">
       <r>    -7.1566     0.0000     0.0000 </r>
       <r>    -7.0473     0.0000     0.0000 </r>
       <r>    -6.9380     0.0000     0.0000 </r>
       <r>    -6.8287     0.0000     0.0000 </r>
       <r>    -6.7194     0.0000     0.0000 </r>
       <r>    -6.6101     0.0000     0.0000 </r>
       <r>    -6.5009     0.0000     0.0000 </r>
       <r>    -6.3916     0.0000     0.0000 </r>
       <r>    -6.2823     0.0000     0.0000 </r>
       <r>    -6.1730     0.0000     0.0000 </r>
       <r>    -6.0637     0.0000     0.0000 </r>
       <r>    -5.9544     0.0000     0.0000 </r>
       <r>    -5.8451     0.0000     0.0000 </r>
       <r>    -5.7358     0.0000     0.0000 </r>
       <r>    -5.6265     0.0211     0.0023 </r>
       <r>    -5.5172     0.0526     0.0081 </r>
       <r>    -5.4080     0.0234     0.0106 </r>
       <r>    -5.2987     0.0515     0.0162 </r>
       <r>    -5.1894     0.0844     0.0255 </r>
       <r>    -5.0801     0.1270     0.0393 </r>
       <r>    -4.9708     0.0616     0.0461 </r>
       <r>    -4.8615     0.0769     0.0545 </r>
       <r>    -4.7522     0.0742     0.0626 </r>
       <r>    -4.6429     0.1689     0.0811 </r>
       <r>    -4.5336     0.0632     0.0880 </r>
       <r>    -4.4243     0.1482     0.1042 </r>
       <r>    -4.3150     0.1897     0.1249 </r>
       <r>    -4.2058     0.1149     0.1375 </r>
       <r>    -4.0965     0.1522     0.1541 </r>
       <r>    -3.9872     0.1169     0.1669 </r>
       <r>    -3.8779     0.1441     0.1826 </r>
       <r>    -3.7686     0.1265     0.1965 </r>
       <r>    -3.6593     0.1141     0.2089 </r>
       <r>    -3.5500     0.3140     0.2432 </r>
       <r>    -3.4407     0.1977     0.2648 </r>
       <r>    -3.3314     0.1639     0.2828 </r>
       <r>    -3.2221     0.2298     0.3079 </r>
       <r>    -3.1128     0.0713     0.3157 </r>
       <r>    -3.0036     0.3807     0.3573 </r>
       <r>    -2.8943     0.3130     0.3915 </r>
       <r>    -2.7850     0.1991     0.4132 </r>
       <r>    -2.6757     0.3034     0.4464 </r>
       <r>    -2.5664     0.3214     0.4815 </r>
       <r>    -2.4571     0.3952     0.5247 </r>
       <r>    -2.3478     0.4211     0.5707 </r>
       <r>    -2.2385     0.3173     0.6054 </r>
       <r>    -2.1292     0.9550     0.7098 </r>
       <r>    -2.0199     0.6322     0.7789 </r>
       <r>    -1.9107     1.1054     0.8997 </r>
       <r>    -1.8014     1.5777     1.0721 </r>
       <r>    -1.6921     1.5553     1.2421 </r>
       <r>    -1.5828     1.6798     1.4257 </r>
       <r>    -1.4735     2.7846     1.7300 </r>
       <r>    -1.3642     3.5100     2.1136 </r>
       <r>    -1.2549     3.2281     2.4665 </r>
       <r>    -1.1456     3.2192     2.8183 </r>
       <r>    -1.0363     3.4686     3.1974 </r>
       <r>    -0.9270     4.1782     3.6540 </r>
       <r>    -0.8177     5.1358     4.2153 </r>
       <r>    -0.7085     6.2690     4.9005 </r>
       <r>    -0.5992     7.3819     5.7072 </r>
       <r>    -0.4899     5.2012     6.2757 </r>
       <r>    -0.3806     4.2302     6.7380 </r>
       <r>    -0.2713     5.5704     7.3468 </r>
       <r>    -0.1620     5.9978     8.0023 </r>
       <r>    -0.0527     5.2048     8.5711 </r>
       <r>     0.0566     5.9410     9.2204 </r>
       <r>     0.1659     8.5539    10.1553 </r>
       <r>     0.2752     2.9588    10.4787 </r>
       <r>     0.3845     0.3793    10.5201 </r>
       <r>     0.4937     0.7245    10.5993 </r>
       <r>     0.6030     0.3145    10.6337 </r>
       <r>     0.7123     0.2973    10.6662 </r>
       <r>     0.8216     0.6328    10.7353 </r>
       <r>     0.9309     0.4242    10.7817 </r>
       <r>     1.0402     0.1753    10.8009 </r>
       <r>     1.1495     0.2771    10.8311 </r>
       <r>     1.2588     0.5761    10.8941 </r>
       <r>     1.3681     0.4243    10.9405 </r>
       <r>     1.4774     0.2697    10.9700 </r>
       <r>     1.5866     0.3072    11.0035 </r>
       <r>     1.6959     0.2759    11.0337 </r>
       <r>     1.8052     0.3919    11.0765 </r>
       <r>     1.9145     0.4294    11.1234 </r>
       <r>     2.0238     0.3150    11.1579 </r>
       <r>     2.1331     0.5295    11.2157 </r>
       <r>     2.2424     0.0593    11.2222 </r>
       <r>     2.3517     0.1906    11.2431 </r>
       <r>     2.4610     0.3425    11.2805 </r>
       <r>     2.5703     0.6168    11.3479 </r>
       <r>     2.6796     0.2558    11.3759 </r>
       <r>     2.7888     0.2360    11.4017 </r>
       <r>     2.8981     0.2697    11.4311 </r>
       <r>     3.0074     0.3458    11.4689 </r>
       <r>     3.1167     0.0630    11.4758 </r>
       <r>     3.2260     0.3836    11.5177 </r>
       <r>     3.3353     0.2533    11.5454 </r>
       <r>     3.4446     0.3335    11.5819 </r>
       <r>     3.5539     0.3931    11.6248 </r>
       <r>     3.6632     0.2219    11.6491 </r>
       <r>     3.7725     0.2855    11.6803 </r>
       <r>     3.8817     0.0664    11.6875 </r>
       <r>     3.9910     0.2785    11.7180 </r>
       <r>     4.1003     0.1621    11.7357 </r>
       <r>     4.2096     0.5916    11.8004 </r>
       <r>     4.3189     0.2873    11.8318 </r>
       <r>     4.4282     0.2939    11.8639 </r>
       <r>     4.5375     0.3874    11.9062 </r>
       <r>     4.6468     0.4341    11.9537 </r>
       <r>     4.7561     0.3457    11.9914 </r>
       <r>     4.8654     0.3871    12.0337 </r>
       <r>     4.9747     0.1591    12.0511 </r>
       <r>     5.0839     0.1339    12.0658 </r>
       <r>     5.1932     0.5631    12.1273 </r>
       <r>     5.3025     0.3085    12.1610 </r>
       <r>     5.4118     0.4039    12.2052 </r>
       <r>     5.5211     0.3679    12.2454 </r>
       <r>     5.6304     0.1333    12.2599 </r>
       <r>     5.7397     0.3667    12.3000 </r>
       <r>     5.8490     0.5521    12.3604 </r>
       <r>     5.9583     0.0917    12.3704 </r>
       <r>     6.0676     0.1862    12.3907 </r>
       <r>     6.1769     0.2921    12.4226 </r>
       <r>     6.2861     0.4994    12.4772 </r>
       <r>     6.3954     0.2304    12.5024 </r>
       <r>     6.5047     0.1672    12.5207 </r>
       <r>     6.6140     0.5122    12.5767 </r>
       <r>     6.7233     0.2378    12.6026 </r>
       <r>     6.8326     0.1622    12.6204 </r>
       <r>     6.9419     0.1884    12.6410 </r>
       <r>     7.0512     0.5143    12.6972 </r>
       <r>     7.1605     0.5093    12.7528 </r>
       <r>     7.2698     0.3538    12.7915 </r>
       <r>     7.3790     0.3065    12.8250 </r>
       <r>     7.4883     0.5002    12.8797 </r>
       <r>     7.5976     0.0997    12.8906 </r>
       <r>     7.7069     0.4179    12.9362 </r>
       <r>     7.8162     0.5028    12.9912 </r>
       <r>     7.9255     0.2764    13.0214 </r>
       <r>     8.0348     0.6474    13.0921 </r>
       <r>     8.1441     0.2353    13.1179 </r>
       <r>     8.2534     0.3551    13.1567 </r>
       <r>     8.3627     0.4229    13.2029 </r>
       <r>     8.4720     0.8517    13.2960 </r>
       <r>     8.5812     0.0663    13.3032 </r>
       <r>     8.6905     0.4791    13.3556 </r>
       <r>     8.7998     0.1547    13.3725 </r>
       <r>     8.9091     0.2947    13.4047 </r>
       <r>     9.0184     0.7178    13.4831 </r>
       <r>     9.1277     0.5584    13.5442 </r>
       <r>     9.2370     0.4459    13.5929 </r>
       <r>     9.3463     0.3907    13.6356 </r>
       <r>     9.4556     0.2182    13.6595 </r>
       <r>     9.5649     0.3905    13.7021 </r>
       <r>     9.6742     0.2558    13.7301 </r>
       <r>     9.7834     0.3164    13.7647 </r>
       <r>     9.8927     0.3052    13.7980 </r>
       <r>    10.0020     0.8689    13.8930 </r>
       <r>    10.1113     0.4990    13.9475 </r>
       <r>    10.2206     0.5437    14.0069 </r>
       <r>    10.3299     0.0947    14.0173 </r>
       <r>    10.4392     0.6342    14.0866 </r>
       <r>    10.5485     0.6717    14.1600 </r>
       <r>    10.6578     0.1879    14.1806 </r>
       <r>    10.7671     0.4372    14.2283 </r>
       <r>    10.8763     0.6044    14.2944 </r>
       <r>    10.9856     0.1855    14.3147 </r>
       <r>    11.0949     0.7081    14.3921 </r>
       <r>    11.2042     0.1632    14.4099 </r>
       <r>    11.3135     0.5849    14.4738 </r>
       <r>    11.4228     0.3951    14.5170 </r>
       <r>    11.5321     0.3107    14.5510 </r>
       <r>    11.6414     0.6276    14.6196 </r>
       <r>    11.7507     0.7152    14.6977 </r>
       <r>    11.8600     0.2932    14.7298 </r>
       <r>    11.9693     0.4211    14.7758 </r>
       <r>    12.0785     0.5195    14.8326 </r>
       <r>    12.1878     0.3902    14.8752 </r>
       <r>    12.2971     0.6322    14.9443 </r>
       <r>    12.4064     0.3848    14.9864 </r>
       <r>    12.5157     0.8004    15.0738 </r>
       <r>    12.6250     0.6189    15.1415 </r>
       <r>    12.7343     0.2211    15.1656 </r>
       <r>    12.8436     0.6446    15.2361 </r>
       <r>    12.9529     0.7348    15.3164 </r>
       <r>    13.0622     0.4032    15.3604 </r>
       <r>    13.1715     0.5259    15.4179 </r>
       <r>    13.2807     0.4223    15.4641 </r>
       <r>    13.3900     0.3610    15.5035 </r>
       <r>    13.4993     0.6047    15.5696 </r>
       <r>    13.6086     0.4693    15.6209 </r>
       <r>    13.7179     0.5037    15.6760 </r>
       <r>    13.8272     0.5033    15.7310 </r>
       <r>    13.9365     0.3157    15.7655 </r>
       <r>    14.0458     0.5920    15.8302 </r>
       <r>    14.1551     0.6848    15.9050 </r>
       <r>    14.2644     0.5240    15.9623 </r>
       <r>    14.3736     0.2411    15.9886 </r>
       <r>    14.4829     0.5665    16.0505 </r>
       <r>    14.5922     0.2716    16.0802 </r>
       <r>    14.7015     0.6213    16.1481 </r>
       <r>    14.8108     0.3764    16.1893 </r>
       <r>    14.9201     0.3878    16.2317 </r>
       <r>    15.0294     0.5206    16.2885 </r>
       <r>    15.1387     0.5617    16.3499 </r>
       <r>    15.2480     0.2557    16.3779 </r>
       <r>    15.3573     0.3494    16.4161 </r>
       <r>    15.4666     0.4032    16.4601 </r>
       <r>    15.5758     0.5455    16.5198 </r>
       <r>    15.6851     0.0314    16.5232 </r>
       <r>    15.7944     0.3396    16.5603 </r>
       <r>    15.9037     0.1136    16.5727 </r>
       <r>    16.0130     0.6482    16.6436 </r>
       <r>    16.1223     0.6136    16.7106 </r>
       <r>    16.2316     0.4395    16.7587 </r>
       <r>    16.3409     0.3062    16.7921 </r>
       <r>    16.4502     0.2764    16.8223 </r>
       <r>    16.5595     0.3385    16.8593 </r>
       <r>    16.6688     0.6018    16.9251 </r>
       <r>    16.7780     0.4366    16.9728 </r>
       <r>    16.8873     0.0274    16.9758 </r>
       <r>    16.9966     0.4794    17.0282 </r>
       <r>    17.1059     0.2363    17.0540 </r>
       <r>    17.2152     0.5013    17.1088 </r>
       <r>    17.3245     0.2461    17.1357 </r>
       <r>    17.4338     0.5054    17.1909 </r>
       <r>    17.5431     0.7660    17.2747 </r>
       <r>    17.6524     0.5695    17.3369 </r>
       <r>    17.7617     0.3218    17.3721 </r>
       <r>    17.8709     0.5561    17.4328 </r>
       <r>    17.9802     0.4614    17.4833 </r>
       <r>    18.0895     0.4683    17.5344 </r>
       <r>    18.1988     0.2233    17.5588 </r>
       <r>    18.3081     0.6279    17.6275 </r>
       <r>    18.4174     0.3974    17.6709 </r>
       <r>    18.5267     0.4989    17.7254 </r>
       <r>    18.6360     0.5982    17.7908 </r>
       <r>    18.7453     0.4402    17.8389 </r>
       <r>    18.8546     0.8928    17.9365 </r>
       <r>    18.9639     0.4738    17.9883 </r>
       <r>    19.0731     0.5488    18.0482 </r>
       <r>    19.1824     0.5764    18.1112 </r>
       <r>    19.2917     0.6213    18.1791 </r>
       <r>    19.4010     0.6492    18.2501 </r>
       <r>    19.5103     0.6376    18.3198 </r>
       <r>    19.6196     0.4180    18.3655 </r>
       <r>    19.7289     0.4926    18.4193 </r>
       <r>    19.8382     0.6172    18.4868 </r>
       <r>    19.9475     0.6428    18.5570 </r>
       <r>    20.0568     0.4539    18.6066 </r>
       <r>    20.1660     0.4075    18.6512 </r>
       <r>    20.2753     0.5963    18.7163 </r>
       <r>    20.3846     0.2264    18.7411 </r>
       <r>    20.4939     0.4458    18.7898 </r>
       <r>    20.6032     1.0234    18.9016 </r>
       <r>    20.7125     0.7930    18.9883 </r>
       <r>    20.8218     0.6130    19.0553 </r>
       <r>    20.9311     0.6333    19.1245 </r>
       <r>    21.0404     0.6224    19.1925 </r>
       <r>    21.1497     1.0014    19.3020 </r>
       <r>    21.2590     0.2889    19.3336 </r>
       <r>    21.3682     0.0718    19.3414 </r>
       <r>    21.4775     0.5665    19.4033 </r>
       <r>    21.5868     0.3894    19.4459 </r>
       <r>    21.6961     0.6696    19.5191 </r>
       <r>    21.8054     0.4967    19.5733 </r>
       <r>    21.9147     0.1352    19.5881 </r>
       <r>    22.0240     0.2175    19.6119 </r>
       <r>    22.1333     0.2470    19.6389 </r>
       <r>    22.2426     0.2458    19.6658 </r>
       <r>    22.3519     0.6292    19.7345 </r>
       <r>    22.4612     0.3333    19.7710 </r>
       <r>    22.5704     0.3103    19.8049 </r>
       <r>    22.6797     0.2902    19.8366 </r>
       <r>    22.7890     0.4651    19.8874 </r>
       <r>    22.8983     0.3727    19.9281 </r>
       <r>    23.0076     0.2015    19.9502 </r>
       <r>    23.1169     0.0113    19.9514 </r>
       <r>    23.2262     0.0602    19.9580 </r>
       <r>    23.3355     0.1257    19.9717 </r>
       <r>    23.4448     0.0047    19.9722 </r>
       <r>    23.5541     0.0000    19.9722 </r>
       <r>    23.6633     0.0000    19.9722 </r>
       <r>    23.7726     0.0000    19.9722 </r>
       <r>    23.8819     0.0001    19.9722 </r>
       <r>    23.9912     0.1270    19.9861 </r>
       <r>    24.1005     0.0003    19.9861 </r>
       <r>    24.2098     0.1268    20.0000 </r>
       <r>    24.3191     0.0000    20.0000 </r>
       <r>    24.4284     0.0000    20.0000 </r>
       <r>    24.5377     0.0000    20.0000 </r>
       <r>    24.6470     0.0000    20.0000 </r>
       <r>    24.7563     0.0000    20.0000 </r>
       <r>    24.8655     0.0000    20.0000 </r>
       <r>    24.9748     0.0000    20.0000 </r>
       <r>    25.0841     0.0000    20.0000 </r>
       <r>    25.1934     0.0000    20.0000 </r>
       <r>    25.3027     0.0000    20.0000 </r>
       <r>    25.4120     0.0000    20.0000 </r>
       <r>    25.5213     0.0000    20.0000 </r>
       <r>    25.6306     0.0000    20.0000 </r>
      </set>
     </set>
    </array>
   </total>
  </dos>
 </calculation>
 <structure name="finalpos" >
  <crystal>
   <varray name="basis" >
    <v>       2.00000000       2.00000000       0.00000000 </v>
    <v>       0.00000000       2.00000000       2.00000000 </v>
    <v>       2.00000000       0.00000000       2.00000000 </v>
   </varray>
   <i name="volume">     16.00000000 </i>
   <varray name="rec_basis" >
    <v>       0.25000000       0.25000000      -0.25000000 </v>
    <v>      -0.25000000       0.25000000       0.25000000 </v>
    <v>       0.25000000      -0.25000000       0.25000000 </v>
   </varray>
  </crystal>
  <varray name="positions" >
   <v>       0.00000000       0.00000000       0.00000000 </v>
  </varray>
 </structure>
</modeling>
