sc Cu                                   
   3.00000000000000     
     1.000000    0.000000    0.000000
     0.000000    1.000000    0.000000
     0.000000    0.000000    1.000000
   Cu
     1
Direct
  0.000000  0.000000  0.000000
 
   28   28   28
  409.90      391.27      340.02      268.12      190.49      120.42      66.629      32.194      14.886      8.6365    
  6.2072      4.6107      3.6913      3.2539      3.1304      3.2539      3.6913      4.6107      6.2072      8.6365    
  14.886      32.194      66.629      120.42      190.49      268.12      340.02      391.27      391.27      373.49    
  324.52      255.76      181.49      114.48      63.165      30.499      14.253      8.4499      6.0919      4.5349    
  3.6401      3.2141      3.0937      3.2141      3.6401      4.5349      6.0919      8.4499      14.253      30.499    
  63.165      114.48      181.49      255.76      324.52      373.49      340.02      324.52      281.77      221.65    
  156.65      98.140      53.713      25.955      12.603      7.9444      5.7610      4.3185      3.4931      3.0993    
  2.9874      3.0993      3.4931      4.3185      5.7610      7.9444      12.603      25.955      53.713      98.140    
  156.65      221.65      281.77      324.52      268.12      255.76      221.65      173.61      121.72      75.356    
  40.798      19.978      10.544      7.2104      5.2583      3.9910      3.2687      2.9218      2.8225      2.9218    
  3.2687      3.9910      5.2583      7.2104      10.544      19.978      40.798      75.356      121.72      173.61    
  221.65      255.76      190.49      181.49      156.65      121.72      84.257      51.366      27.697      14.296    
  8.6880      6.3035      4.6493      3.5944      2.9924      2.6995      2.6144      2.6995      2.9924      3.5944    
  4.6493      6.3035      8.6880      14.296      27.697      51.366      84.257      121.72      156.65      181.49    
  120.42      114.48      98.140      75.356      51.366      31.031      17.268      10.172      7.2135      5.3280    
  4.0076      3.1732      2.6917      2.4518      2.3806      2.4518      2.6917      3.1732      4.0076      5.3280    
  7.2135      10.172      17.268      31.031      51.366      75.356      98.140      114.48      66.629      63.165    
  53.713      40.798      27.697      17.268      10.854      7.7498      5.8460      4.3944      3.3983      2.7651    
  2.3906      2.1972      2.1382      2.1972      2.3906      2.7651      3.3983      4.3944      5.8460      7.7498    
  10.854      17.268      27.697      40.798      53.713      63.165      32.194      30.499      25.955      19.978    
  14.296      10.172      7.7498      6.0410      4.6311      3.5836      2.8642      2.3956      2.1071      1.9514    
  1.9023      1.9514      2.1071      2.3956      2.8642      3.5836      4.6311      6.0410      7.7498      10.172    
  14.296      19.978      25.955      30.499      14.886      14.253      12.603      10.544      8.6880      7.2135    
  5.8460      4.6311      3.6558      2.9321      2.4229      2.0769      1.8529      1.7261      1.6850      1.7261    
  1.8529      2.0769      2.4229      2.9321      3.6558      4.6311      5.8460      7.2135      8.6880      10.544    
  12.603      14.253      8.6365      8.4499      7.9444      7.2104      6.3035      5.3280      4.3944      3.5836    
  2.9321      2.4366      2.0723      1.8116      1.6342      1.5299      1.4954      1.5299      1.6342      1.8116    
  2.0723      2.4366      2.9321      3.5836      4.3944      5.3280      6.3035      7.2104      7.9444      8.4499    
  6.2072      6.0919      5.7610      5.2583      4.6493      4.0076      3.3983      2.8642      2.4229      2.0723    
  1.8012      1.5976      1.4542      1.3681      1.3392      1.3681      1.4542      1.5976      1.8012      2.0723    
  2.4229      2.8642      3.3983      4.0076      4.6493      5.2583      5.7610      6.0919      4.6107      4.5349    
  4.3185      3.9910      3.5944      3.1732      2.7651      2.3956      2.0769      1.8116      1.5976      1.4324    
  1.3143      1.2431      1.2193      1.2431      1.3143      1.4324      1.5976      1.8116      2.0769      2.3956    
  2.7651      3.1732      3.5944      3.9910      4.3185      4.5349      3.6913      3.6401      3.4931      3.2687    
  2.9924      2.6917      2.3906      2.1071      1.8529      1.6342      1.4542      1.3143      1.2147      1.1552    
  1.1355      1.1552      1.2147      1.3143      1.4542      1.6342      1.8529      2.1071      2.3906      2.6917    
  2.9924      3.2687      3.4931      3.6401      3.2539      3.2141      3.0993      2.9218      2.6995      2.4518    
  2.1972      1.9514      1.7261      1.5299      1.3681      1.2431      1.1552      1.1034      1.0863      1.1034    
  1.1552      1.2431      1.3681      1.5299      1.7261      1.9514      2.1972      2.4518      2.6995      2.9218    
  3.0993      3.2141      3.1304      3.0937      2.9874      2.8225      2.6144      2.3806      2.1382      1.9023    
  1.6850      1.4954      1.3392      1.2193      1.1355      1.0863      1.0702      1.0863      1.1355      1.2193    
  1.3392      1.4954      1.6850      1.9023      2.1382      2.3806      2.6144      2.8225      2.9874      3.0937    
  3.2539      3.2141      3.0993      2.9218      2.6995      2.4518      2.1972      1.9514      1.7261      1.5299    
  1.3681      1.2431      1.1552      1.1034      1.0863      1.1034      1.1552      1.2431      1.3681      1.5299    
  1.7261      1.9514      2.1972      2.4518      2.6995      2.9218      3.0993      3.2141      3.6913      3.6401    
  3.4931      3.2687      2.9924      2.6917      2.3906      2.1071      1.8529      1.6342      1.4542      1.3143    
  1.2147      1.1552      1.1355      1.1552      1.2147      1.3143      1.4542      1.6342      1.8529      2.1071    
  2.3906      2.6917      2.9924      3.2687      3.4931      3.6401      4.6107      4.5349      4.3185      3.9910    
  3.5944      3.1732      2.7651      2.3956      2.0769      1.8116      1.5976      1.4324      1.3143      1.2431    
  1.2193      1.2431      1.3143      1.4324      1.5976      1.8116      2.0769      2.3956      2.7651      3.1732    
  3.5944      3.9910      4.3185      4.5349      6.2072      6.0919      5.7610      5.2583      4.6493      4.0076    
  3.3983      2.8642      2.4229      2.0723      1.8012      1.5976      1.4542      1.3681      1.3392      1.3681    
  1.4542      1.5976      1.8012      2.0723      2.4229      2.8642      3.3983      4.0076      4.6493      5.2583    
  5.7610      6.0919      8.6365      8.4499      7.9444      7.2104      6.3035      5.3280      4.3944      3.5836    
  2.9321      2.4366      2.0723      1.8116      1.6342      1.5299      1.4954      1.5299      1.6342      1.8116    
  2.0723      2.4366      2.9321      3.5836      4.3944      5.3280      6.3035      7.2104      7.9444      8.4499    
  14.886      14.253      12.603      10.544      8.6880      7.2135      5.8460      4.6311      3.6558      2.9321    
  2.4229      2.0769      1.8529      1.7261      1.6850      1.7261      1.8529      2.0769      2.4229      2.9321    
  3.6558      4.6311      5.8460      7.2135      8.6880      10.544      12.603      14.253      32.194      30.499    
  25.955      19.978      14.296      10.172      7.7498      6.0410      4.6311      3.5836      2.8642      2.3956    
  2.1071      1.9514      1.9023      1.9514      2.1071      2.3956      2.8642      3.5836      4.6311      6.0410    
  7.7498      10.172      14.296      19.978      25.955      30.499      66.629      63.165      53.713      40.798    
  27.697      17.268      10.854      7.7498      5.8460      4.3944      3.3983      2.7651      2.3906      2.1972    
  2.1382      2.1972      2.3906      2.7651      3.3983      4.3944      5.8460      7.7498      10.854      17.268    
  27.697      40.798      53.713      63.165      120.42      114.48      98.140      75.356      51.366      31.031    
  17.268      10.172      7.2135      5.3280      4.0076      3.1732      2.6917      2.4518      2.3806      2.4518    
  2.6917      3.1732      4.0076      5.3280      7.2135      10.172      17.268      31.031      51.366      75.356    
  98.140      114.48      190.49      181.49      156.65      121.72      84.257      51.366      27.697      14.296    
  8.6880      6.3035      4.6493      3.5944      2.9924      2.6995      2.6144      2.6995      2.9924      3.5944    
  4.6493      6.3035      8.6880      14.296      27.697      51.366      84.257      121.72      156.65      181.49    
  268.12      255.76      221.65      173.61      121.72      75.356      40.798      19.978      10.544      7.2104    
  5.2583      3.9910      3.2687      2.9218      2.8225      2.9218      3.2687      3.9910      5.2583      7.2104    
  10.544      19.978      40.798      75.356      121.72      173.61      221.65      255.76      340.02      324.52    
  281.77      221.65      156.65      98.140      53.713      25.955      12.603      7.9444      5.7610      4.3185    
  3.4931      3.0993      2.9874      3.0993      3.4931      4.3185      5.7610      7.9444      12.603      25.955    
  53.713      98.140      156.65      221.65      281.77      324.52      391.27      373.49      324.52      255.76    
  181.49      114.48      63.165      30.499      14.253      8.4499      6.0919      4.5349      3.6401      3.2141    
  3.0937      3.2141      3.6401      4.5349      6.0919      8.4499      14.253      30.499      63.165      114.48    
  181.49      255.76      324.52      373.49      391.27      373.49      324.52      255.76      181.49      114.48    
  63.165      30.499      14.253      8.4499      6.0919      4.5349      3.6401      3.2141      3.0937      3.2141    
  3.6401      4.5349      6.0919      8.4499      14.253      30.499      63.165      114.48      181.49      255.76    
  324.52      373.49      373.49      356.50      309.69      243.94      172.88      108.80      59.864      28.898    
  13.664      8.2733      5.9790      4.4610      3.5900      3.1750      3.0576      3.1750      3.5900      4.4610    
  5.9790      8.2733      13.664      28.898      59.864      108.80      172.88      243.94      309.69      356.50    
  324.52      309.69      268.82      211.29      149.10      93.183      50.870      24.612      12.128      7.7896    
  5.6554      4.2495      3.4460      3.0622      2.9531      3.0622      3.4460      4.2495      5.6554      7.7896    
  12.128      24.612      50.870      93.183      149.10      211.29      268.82      309.69      255.76      243.94    
  211.29      165.31      115.69      71.442      38.612      18.997      10.217      7.0722      5.1642      3.9296    
  3.2262      2.8878      2.7907      2.8878      3.2262      3.9296      5.1642      7.0722      10.217      18.997    
  38.612      71.442      115.69      165.31      211.29      243.94      181.49      172.88      149.10      115.69    
  79.915      48.619      26.236      13.691      8.4889      6.1837      4.5696      3.5421      2.9553      2.6691    
  2.5858      2.6691      2.9553      3.5421      4.5696      6.1837      8.4889      13.691      26.236      48.619    
  79.915      115.69      149.10      172.88      114.48      108.80      93.183      71.442      48.619      29.372    
  16.455      9.8651      7.0735      5.2302      3.9433      3.1301      2.6602      2.4253      2.3554      2.4253    
  2.6602      3.1301      3.9433      5.2302      7.0735      9.8651      16.455      29.372      48.619      71.442    
  93.183      108.80      63.165      59.864      50.870      38.612      26.236      16.455      10.494      7.5951    
  5.7350      4.3190      3.3483      2.7306      2.3643      2.1746      2.1165      2.1746      2.3643      2.7306    
  3.3483      4.3190      5.7350      7.5951      10.494      16.455      26.236      38.612      50.870      59.864    
  30.499      28.898      24.612      18.997      13.691      9.8651      7.5951      5.9250      4.5491      3.5282    
  2.8264      2.3683      2.0854      1.9322      1.8837      1.9322      2.0854      2.3683      2.8264      3.5282    
  4.5491      5.9250      7.5951      9.8651      13.691      18.997      24.612      28.898      14.253      13.664    
  12.128      10.217      8.4889      7.0735      5.7350      4.5491      3.5981      2.8922      2.3944      2.0552    
  1.8349      1.7099      1.6693      1.7099      1.8349      2.0552      2.3944      2.8922      3.5981      4.5491    
  5.7350      7.0735      8.4889      10.217      12.128      13.664      8.4499      8.2733      7.7896      7.0722    
  6.1837      5.2302      4.3190      3.5282      2.8922      2.4076      2.0504      1.7940      1.6192      1.5163    
  1.4821      1.5163      1.6192      1.7940      2.0504      2.4076      2.8922      3.5282      4.3190      5.2302    
  6.1837      7.0722      7.7896      8.2733      6.0919      5.9790      5.6554      5.1642      4.5696      3.9433    
  3.3483      2.8264      2.3944      2.0504      1.7838      1.5832      1.4416      1.3565      1.3280      1.3565    
  1.4416      1.5832      1.7838      2.0504      2.3944      2.8264      3.3483      3.9433      4.5696      5.1642    
  5.6554      5.9790      4.5349      4.4610      4.2495      3.9296      3.5421      3.1301      2.7306      2.3683    
  2.0552      1.7940      1.5832      1.4201      1.3035      1.2332      1.2097      1.2332      1.3035      1.4201    
  1.5832      1.7940      2.0552      2.3683      2.7306      3.1301      3.5421      3.9296      4.2495      4.4610    
  3.6401      3.5900      3.4460      3.2262      2.9553      2.6602      2.3643      2.0854      1.8349      1.6192    
  1.4416      1.3035      1.2052      1.1465      1.1270      1.1465      1.2052      1.3035      1.4416      1.6192    
  1.8349      2.0854      2.3643      2.6602      2.9553      3.2262      3.4460      3.5900      3.2141      3.1750    
  3.0622      2.8878      2.6691      2.4253      2.1746      1.9322      1.7099      1.5163      1.3565      1.2332    
  1.1465      1.0954      1.0785      1.0954      1.1465      1.2332      1.3565      1.5163      1.7099      1.9322    
  2.1746      2.4253      2.6691      2.8878      3.0622      3.1750      3.0937      3.0576      2.9531      2.7907    
  2.5858      2.3554      2.1165      1.8837      1.6693      1.4821      1.3280      1.2097      1.1270      1.0785    
  1.0626      1.0785      1.1270      1.2097      1.3280      1.4821      1.6693      1.8837      2.1165      2.3554    
  2.5858      2.7907      2.9531      3.0576      3.2141      3.1750      3.0622      2.8878      2.6691      2.4253    
  2.1746      1.9322      1.7099      1.5163      1.3565      1.2332      1.1465      1.0954      1.0785      1.0954    
  1.1465      1.2332      1.3565      1.5163      1.7099      1.9322      2.1746      2.4253      2.6691      2.8878    
  3.0622      3.1750      3.6401      3.5900      3.4460      3.2262      2.9553      2.6602      2.3643      2.0854    
  1.8349      1.6192      1.4416      1.3035      1.2052      1.1465      1.1270      1.1465      1.2052      1.3035    
  1.4416      1.6192      1.8349      2.0854      2.3643      2.6602      2.9553      3.2262      3.4460      3.5900    
  4.5349      4.4610      4.2495      3.9296      3.5421      3.1301      2.7306      2.3683      2.0552      1.7940    
  1.5832      1.4201      1.3035      1.2332      1.2097      1.2332      1.3035      1.4201      1.5832      1.7940    
  2.0552      2.3683      2.7306      3.1301      3.5421      3.9296      4.2495      4.4610      6.0919      5.9790    
  5.6554      5.1642      4.5696      3.9433      3.3483      2.8264      2.3944      2.0504      1.7838      1.5832    
  1.4416      1.3565      1.3280      1.3565      1.4416      1.5832      1.7838      2.0504      2.3944      2.8264    
  3.3483      3.9433      4.5696      5.1642      5.6554      5.9790      8.4499      8.2733      7.7896      7.0722    
  6.1837      5.2302      4.3190      3.5282      2.8922      2.4076      2.0504      1.7940      1.6192      1.5163    
  1.4821      1.5163      1.6192      1.7940      2.0504      2.4076      2.8922      3.5282      4.3190      5.2302    
  6.1837      7.0722      7.7896      8.2733      14.253      13.664      12.128      10.217      8.4889      7.0735    
  5.7350      4.5491      3.5981      2.8922      2.3944      2.0552      1.8349      1.7099      1.6693      1.7099    
  1.8349      2.0552      2.3944      2.8922      3.5981      4.5491      5.7350      7.0735      8.4889      10.217    
  12.128      13.664      30.499      28.898      24.612      18.997      13.691      9.8651      7.5951      5.9250    
  4.5491      3.5282      2.8264      2.3683      2.0854      1.9322      1.8837      1.9322      2.0854      2.3683    
  2.8264      3.5282      4.5491      5.9250      7.5951      9.8651      13.691      18.997      24.612      28.898    
  63.165      59.864      50.870      38.612      26.236      16.455      10.494      7.5951      5.7350      4.3190    
  3.3483      2.7306      2.3643      2.1746      2.1165      2.1746      2.3643      2.7306      3.3483      4.3190    
  5.7350      7.5951      10.494      16.455      26.236      38.612      50.870      59.864      114.48      108.80    
  93.183      71.442      48.619      29.372      16.455      9.8651      7.0735      5.2302      3.9433      3.1301    
  2.6602      2.4253      2.3554      2.4253      2.6602      3.1301      3.9433      5.2302      7.0735      9.8651    
  16.455      29.372      48.619      71.442      93.183      108.80      181.49      172.88      149.10      115.69    
  79.915      48.619      26.236      13.691      8.4889      6.1837      4.5696      3.5421      2.9553      2.6691    
  2.5858      2.6691      2.9553      3.5421      4.5696      6.1837      8.4889      13.691      26.236      48.619    
  79.915      115.69      149.10      172.88      255.76      243.94      211.29      165.31      115.69      71.442    
  38.612      18.997      10.217      7.0722      5.1642      3.9296      3.2262      2.8878      2.7907      2.8878    
  3.2262      3.9296      5.1642      7.0722      10.217      18.997      38.612      71.442      115.69      165.31    
  211.29      243.94      324.52      309.69      268.82      211.29      149.10      93.183      50.870      24.612    
  12.128      7.7896      5.6554      4.2495      3.4460      3.0622      2.9531      3.0622      3.4460      4.2495    
  5.6554      7.7896      12.128      24.612      50.870      93.183      149.10      211.29      268.82      309.69    
  373.49      356.50      309.69      243.94      172.88      108.80      59.864      28.898      13.664      8.2733    
  5.9790      4.4610      3.5900      3.1750      3.0576      3.1750      3.5900      4.4610      5.9790      8.2733    
  13.664      28.898      59.864      108.80      172.88      243.94      309.69      356.50      340.02      324.52    
  281.77      221.65      156.65      98.140      53.713      25.955      12.603      7.9444      5.7610      4.3185    
  3.4931      3.0993      2.9874      3.0993      3.4931      4.3185      5.7610      7.9444      12.603      25.955    
  53.713      98.140      156.65      221.65      281.77      324.52      324.52      309.69      268.82      211.29    
  149.10      93.183      50.870      24.612      12.128      7.7896      5.6554      4.2495      3.4460      3.0622    
  2.9531      3.0622      3.4460      4.2495      5.6554      7.7896      12.128      24.612      50.870      93.183    
  149.10      211.29      268.82      309.69      281.77      268.82      233.05      182.68      128.27      79.582    
  43.151      21.038      10.897      7.3501      5.3532      4.0524      3.3108      2.9552      2.8535      2.9552    
  3.3108      4.0524      5.3532      7.3501      10.897      21.038      43.151      79.582      128.27      182.68    
  233.05      268.82      221.65      211.29      182.68      142.42      99.092      60.751      32.723      16.412    
  9.3697      6.6738      4.8952      3.7541      3.1039      2.7894      2.6987      2.7894      3.1039      3.7541    
  4.8952      6.6738      9.3697      16.412      32.723      60.751      99.092      142.42      182.68      211.29    
  156.65      149.10      128.27      99.092      68.039      41.178      22.345      12.118      7.9560      5.8399    
  4.3418      3.3922      2.8484      2.5812      2.5029      2.5812      2.8484      3.3922      4.3418      5.8399    
  7.9560      12.118      22.345      41.178      68.039      99.092      128.27      149.10      98.140      93.183    
  79.582      60.751      41.178      24.942      14.326      9.0692      6.6698      4.9505      3.7593      3.0067    
  2.5692      2.3486      2.2824      2.3486      2.5692      3.0067      3.7593      4.9505      6.6698      9.0692    
  14.326      24.942      41.178      60.751      79.582      93.183      53.713      50.870      43.151      32.723    
  22.345      14.326      9.5660      7.1570      5.4169      4.1038      3.2055      2.6315      2.2883      2.1087    
  2.0533      2.1087      2.2883      2.6315      3.2055      4.1038      5.4169      7.1570      9.5660      14.326    
  22.345      32.723      43.151      50.870      25.955      24.612      21.038      16.412      12.118      9.0692    
  7.1570      5.5927      4.3149      3.3696      2.7180      2.2896      2.0224      1.8762      1.8298      1.8762    
  2.0224      2.2896      2.7180      3.3696      4.3149      5.5927      7.1570      9.0692      12.118      16.412    
  21.038      24.612      12.603      12.128      10.897      9.3697      7.9560      6.6698      5.4169      4.3149    
  3.4335      2.7777      2.3123      1.9924      1.7826      1.6628      1.6236      1.6628      1.7826      1.9924    
  2.3123      2.7777      3.4335      4.3149      5.4169      6.6698      7.9560      9.3697      10.897      12.128    
  7.9444      7.7896      7.3501      6.6738      5.8399      4.9505      4.1038      3.3696      2.7777      2.3241    
  1.9871      1.7431      1.5756      1.4765      1.4436      1.4765      1.5756      1.7431      1.9871      2.3241    
  2.7777      3.3696      4.1038      4.9505      5.8399      6.6738      7.3501      7.7896      5.7610      5.6554    
  5.3532      4.8952      4.3418      3.7593      3.2055      2.7180      2.3123      1.9871      1.7331      1.5410    
  1.4048      1.3229      1.2954      1.3229      1.4048      1.5410      1.7331      1.9871      2.3123      2.7180    
  3.2055      3.7593      4.3418      4.8952      5.3532      5.6554      4.3185      4.2495      4.0524      3.7541    
  3.3922      3.0067      2.6315      2.2896      1.9924      1.7431      1.5410      1.3842      1.2719      1.2043    
  1.1816      1.2043      1.2719      1.3842      1.5410      1.7431      1.9924      2.2896      2.6315      3.0067    
  3.3922      3.7541      4.0524      4.2495      3.4931      3.4460      3.3108      3.1039      2.8484      2.5692    
  2.2883      2.0224      1.7826      1.5756      1.4048      1.2719      1.1774      1.1210      1.1022      1.1210    
  1.1774      1.2719      1.4048      1.5756      1.7826      2.0224      2.2883      2.5692      2.8484      3.1039    
  3.3108      3.4460      3.0993      3.0622      2.9552      2.7894      2.5812      2.3486      2.1087      1.8762    
  1.6628      1.4765      1.3229      1.2043      1.1210      1.0719      1.0557      1.0719      1.1210      1.2043    
  1.3229      1.4765      1.6628      1.8762      2.1087      2.3486      2.5812      2.7894      2.9552      3.0622    
  2.9874      2.9531      2.8535      2.6987      2.5029      2.2824      2.0533      1.8298      1.6236      1.4436    
  1.2954      1.1816      1.1022      1.0557      1.0405      1.0557      1.1022      1.1816      1.2954      1.4436    
  1.6236      1.8298      2.0533      2.2824      2.5029      2.6987      2.8535      2.9531      3.0993      3.0622    
  2.9552      2.7894      2.5812      2.3486      2.1087      1.8762      1.6628      1.4765      1.3229      1.2043    
  1.1210      1.0719      1.0557      1.0719      1.1210      1.2043      1.3229      1.4765      1.6628      1.8762    
  2.1087      2.3486      2.5812      2.7894      2.9552      3.0622      3.4931      3.4460      3.3108      3.1039    
  2.8484      2.5692      2.2883      2.0224      1.7826      1.5756      1.4048      1.2719      1.1774      1.1210    
  1.1022      1.1210      1.1774      1.2719      1.4048      1.5756      1.7826      2.0224      2.2883      2.5692    
  2.8484      3.1039      3.3108      3.4460      4.3185      4.2495      4.0524      3.7541      3.3922      3.0067    
  2.6315      2.2896      1.9924      1.7431      1.5410      1.3842      1.2719      1.2043      1.1816      1.2043    
  1.2719      1.3842      1.5410      1.7431      1.9924      2.2896      2.6315      3.0067      3.3922      3.7541    
  4.0524      4.2495      5.7610      5.6554      5.3532      4.8952      4.3418      3.7593      3.2055      2.7180    
  2.3123      1.9871      1.7331      1.5410      1.4048      1.3229      1.2954      1.3229      1.4048      1.5410    
  1.7331      1.9871      2.3123      2.7180      3.2055      3.7593      4.3418      4.8952      5.3532      5.6554    
  7.9444      7.7896      7.3501      6.6738      5.8399      4.9505      4.1038      3.3696      2.7777      2.3241    
  1.9871      1.7431      1.5756      1.4765      1.4436      1.4765      1.5756      1.7431      1.9871      2.3241    
  2.7777      3.3696      4.1038      4.9505      5.8399      6.6738      7.3501      7.7896      12.603      12.128    
  10.897      9.3697      7.9560      6.6698      5.4169      4.3149      3.4335      2.7777      2.3123      1.9924    
  1.7826      1.6628      1.6236      1.6628      1.7826      1.9924      2.3123      2.7777      3.4335      4.3149    
  5.4169      6.6698      7.9560      9.3697      10.897      12.128      25.955      24.612      21.038      16.412    
  12.118      9.0692      7.1570      5.5927      4.3149      3.3696      2.7180      2.2896      2.0224      1.8762    
  1.8298      1.8762      2.0224      2.2896      2.7180      3.3696      4.3149      5.5927      7.1570      9.0692    
  12.118      16.412      21.038      24.612      53.713      50.870      43.151      32.723      22.345      14.326    
  9.5660      7.1570      5.4169      4.1038      3.2055      2.6315      2.2883      2.1087      2.0533      2.1087    
  2.2883      2.6315      3.2055      4.1038      5.4169      7.1570      9.5660      14.326      22.345      32.723    
  43.151      50.870      98.140      93.183      79.582      60.751      41.178      24.942      14.326      9.0692    
  6.6698      4.9505      3.7593      3.0067      2.5692      2.3486      2.2824      2.3486      2.5692      3.0067    
  3.7593      4.9505      6.6698      9.0692      14.326      24.942      41.178      60.751      79.582      93.183    
  156.65      149.10      128.27      99.092      68.039      41.178      22.345      12.118      7.9560      5.8399    
  4.3418      3.3922      2.8484      2.5812      2.5029      2.5812      2.8484      3.3922      4.3418      5.8399    
  7.9560      12.118      22.345      41.178      68.039      99.092      128.27      149.10      221.65      211.29    
  182.68      142.42      99.092      60.751      32.723      16.412      9.3697      6.6738      4.8952      3.7541    
  3.1039      2.7894      2.6987      2.7894      3.1039      3.7541      4.8952      6.6738      9.3697      16.412    
  32.723      60.751      99.092      142.42      182.68      211.29      281.77      268.82      233.05      182.68    
  128.27      79.582      43.151      21.038      10.897      7.3501      5.3532      4.0524      3.3108      2.9552    
  2.8535      2.9552      3.3108      4.0524      5.3532      7.3501      10.897      21.038      43.151      79.582    
  128.27      182.68      233.05      268.82      324.52      309.69      268.82      211.29      149.10      93.183    
  50.870      24.612      12.128      7.7896      5.6554      4.2495      3.4460      3.0622      2.9531      3.0622    
  3.4460      4.2495      5.6554      7.7896      12.128      24.612      50.870      93.183      149.10      211.29    
  268.82      309.69      268.12      255.76      221.65      173.61      121.72      75.356      40.798      19.978    
  10.544      7.2104      5.2583      3.9910      3.2687      2.9218      2.8225      2.9218      3.2687      3.9910    
  5.2583      7.2104      10.544      19.978      40.798      75.356      121.72      173.61      221.65      255.76    
  255.76      243.94      211.29      165.31      115.69      71.442      38.612      18.997      10.217      7.0722    
  5.1642      3.9296      3.2262      2.8878      2.7907      2.8878      3.2262      3.9296      5.1642      7.0722    
  10.217      18.997      38.612      71.442      115.69      165.31      211.29      243.94      221.65      211.29    
  182.68      142.42      99.092      60.751      32.723      16.412      9.3697      6.6738      4.8952      3.7541    
  3.1039      2.7894      2.6987      2.7894      3.1039      3.7541      4.8952      6.6738      9.3697      16.412    
  32.723      60.751      99.092      142.42      182.68      211.29      173.61      165.31      142.42      110.29    
  75.988      46.107      24.891      13.133      8.2993      6.0633      4.4886      3.4880      2.9163      2.6368    