sc Cu                                   
   3.00000000000000     
     1.000000    0.000000    0.000000
     0.000000    1.000000    0.000000
     0.000000    0.000000    1.000000
   Cu
     1
Direct
  0.000000  0.000000  0.000000
 
   28   28   28
 0.40989612432E+03 0.39127200839E+03 0.34001750807E+03 0.26811741660E+03 0.19048814921E+03
 0.12041880519E+03 0.66628755487E+02 0.32194124517E+02 0.14885636954E+02 0.86364620574E+01
 0.62072271374E+01 0.46106650554E+01 0.36912932104E+01 0.32538938327E+01 0.31303831082E+01
 0.32538938327E+01 0.36912932104E+01 0.46106650554E+01 0.62072271374E+01 0.86364620574E+01
 0.14885636954E+02 0.32194124517E+02 0.66628755487E+02 0.12041880519E+03 0.19048814921E+03
 0.26811741660E+03 0.34001750807E+03 0.39127200839E+03 0.39127200839E+03 0.37348686503E+03
 0.32451548090E+03 0.25576326384E+03 0.18149125812E+03 0.11448173466E+03 0.63164842596E+02
 0.30499383996E+02 0.14253129699E+02 0.84499226606E+01 0.60918607503E+01 0.45349427701E+01
 0.36400845959E+01 0.32141173959E+01 0.30936803530E+01 0.32141173959E+01 0.36400845959E+01
 0.45349427701E+01 0.60918607503E+01 0.84499226606E+01 0.14253129699E+02 0.30499383996E+02
 0.63164842596E+02 0.11448173466E+03 0.18149125812E+03 0.25576326384E+03 0.32451548090E+03
 0.37348686503E+03 0.34001750807E+03 0.32451548090E+03 0.28177370207E+03 0.22165401179E+03
 0.15664963419E+03 0.98139779675E+02 0.53712980265E+02 0.25955067326E+02 0.12602943028E+02
 0.79444034264E+01 0.57609630771E+01 0.43184891525E+01 0.34931107813E+01 0.30992783727E+01
 0.29874494392E+01 0.30992783727E+01 0.34931107813E+01 0.43184891525E+01 0.57609630771E+01
 0.79444034264E+01 0.12602943028E+02 0.25955067326E+02 0.53712980265E+02 0.98139779675E+02
 0.15664963419E+03 0.22165401179E+03 0.28177370207E+03 0.32451548090E+03 0.26811741660E+03
 0.25576326384E+03 0.22165401179E+03 0.17360884179E+03 0.12171853650E+03 0.75355649518E+02
 0.40798075146E+02 0.19978483129E+02 0.10543763058E+02 0.72103842718E+01 0.52583047180E+01
 0.39910155712E+01 0.32686869225E+01 0.29218235066E+01 0.28224929453E+01 0.29218235066E+01
 0.32686869225E+01 0.39910155712E+01 0.52583047180E+01 0.72103842718E+01 0.10543763058E+02
 0.19978483129E+02 0.40798075146E+02 0.75355649518E+02 0.12171853650E+03 0.17360884179E+03
 0.22165401179E+03 0.25576326384E+03 0.19048814921E+03 0.18149125812E+03 0.15664963419E+03
 0.12171853650E+03 0.84256652327E+02 0.51366446624E+02 0.27696894892E+02 0.14296355359E+02
 0.86880378510E+01 0.63034597043E+01 0.46493136503E+01 0.35944060587E+01 0.29924320889E+01
 0.26994631704E+01 0.26143560909E+01 0.26994631704E+01 0.29924320889E+01 0.35944060587E+01
 0.46493136503E+01 0.63034597043E+01 0.86880378510E+01 0.14296355359E+02 0.27696894892E+02
 0.51366446624E+02 0.84256652327E+02 0.12171853650E+03 0.15664963419E+03 0.18149125812E+03
 0.12041880519E+03 0.11448173466E+03 0.98139779675E+02 0.75355649518E+02 0.51366446624E+02
 0.31031062743E+02 0.17268393189E+02 0.10172196140E+02 0.72135296666E+01 0.53280341319E+01
 0.40076453151E+01 0.31731595207E+01 0.26916874350E+01 0.24517791380E+01 0.23805711098E+01
 0.24517791380E+01 0.26916874350E+01 0.31731595207E+01 0.40076453151E+01 0.53280341319E+01
 0.72135296666E+01 0.10172196140E+02 0.17268393189E+02 0.31031062743E+02 0.51366446624E+02
 0.75355649518E+02 0.98139779675E+02 0.11448173466E+03 0.66628755487E+02 0.63164842596E+02
 0.53712980265E+02 0.40798075146E+02 0.27696894892E+02 0.17268393189E+02 0.10853705596E+02
 0.77497824957E+01 0.58460354061E+01 0.43943922768E+01 0.33982509250E+01 0.27650964862E+01
 0.23905722746E+01 0.21972439001E+01 0.21382094492E+01 0.21972439001E+01 0.23905722746E+01
 0.27650964862E+01 0.33982509250E+01 0.43943922768E+01 0.58460354061E+01 0.77497824957E+01
 0.10853705596E+02 0.17268393189E+02 0.27696894892E+02 0.40798075146E+02 0.53712980265E+02
 0.63164842596E+02 0.32194124517E+02 0.30499383996E+02 0.25955067326E+02 0.19978483129E+02
 0.14296355359E+02 0.10172196140E+02 0.77497824957E+01 0.60409685857E+01 0.46311167143E+01
 0.35836324426E+01 0.28641549403E+01 0.23955773905E+01 0.21071159351E+01 0.19513807951E+01
 0.19022827472E+01 0.19513807951E+01 0.21071159351E+01 0.23955773905E+01 0.28641549403E+01
 0.35836324426E+01 0.46311167143E+01 0.60409685857E+01 0.77497824957E+01 0.10172196140E+02
 0.14296355359E+02 0.19978483129E+02 0.25955067326E+02 0.30499383996E+02 0.14885636954E+02
 0.14253129699E+02 0.12602943028E+02 0.10543763058E+02 0.86880378510E+01 0.72135296666E+01
 0.58460354061E+01 0.46311167143E+01 0.36557607299E+01 0.29321116442E+01 0.24228623894E+01
 0.20768515891E+01 0.18528541027E+01 0.17261247897E+01 0.16849790694E+01 0.17261247897E+01
 0.18528541027E+01 0.20768515891E+01 0.24228623894E+01 0.29321116442E+01 0.36557607299E+01
 0.46311167143E+01 0.58460354061E+01 0.72135296666E+01 0.86880378510E+01 0.10543763058E+02
 0.12602943028E+02 0.14253129699E+02 0.86364620574E+01 0.84499226606E+01 0.79444034264E+01
 0.72103842718E+01 0.63034597043E+01 0.53280341319E+01 0.43943922768E+01 0.35836324426E+01
 0.29321116442E+01 0.24365792755E+01 0.20723151263E+01 0.18115510902E+01 0.16341782256E+01
 0.15299252737E+01 0.14953627307E+01 0.15299252737E+01 0.16341782256E+01 0.18115510902E+01
 0.20723151263E+01 0.24365792755E+01 0.29321116442E+01 0.35836324426E+01 0.43943922768E+01
 0.53280341319E+01 0.63034597043E+01 0.72103842718E+01 0.79444034264E+01 0.84499226606E+01
 0.62072271374E+01 0.60918607503E+01 0.57609630771E+01 0.52583047180E+01 0.46493136503E+01
 0.40076453151E+01 0.33982509250E+01 0.28641549403E+01 0.24228623894E+01 0.20723151263E+01
 0.18011662965E+01 0.15976478538E+01 0.14542127602E+01 0.13680760334E+01 0.13392441399E+01
 0.13680760334E+01 0.14542127602E+01 0.15976478538E+01 0.18011662965E+01 0.20723151263E+01
 0.24228623894E+01 0.28641549403E+01 0.33982509250E+01 0.40076453151E+01 0.46493136503E+01
 0.52583047180E+01 0.57609630771E+01 0.60918607503E+01 0.46106650554E+01 0.45349427701E+01
 0.43184891525E+01 0.39910155712E+01 0.35944060587E+01 0.31731595207E+01 0.27650964862E+01
 0.23955773905E+01 0.20768515891E+01 0.18115510902E+01 0.15976478538E+01 0.14324034812E+01
 0.13142766492E+01 0.12430838256E+01 0.12192666644E+01 0.12430838256E+01 0.13142766492E+01
 0.14324034812E+01 0.15976478538E+01 0.18115510902E+01 0.20768515891E+01 0.23955773905E+01
 0.27650964862E+01 0.31731595207E+01 0.35944060587E+01 0.39910155712E+01 0.43184891525E+01
 0.45349427701E+01 0.36912932104E+01 0.36400845959E+01 0.34931107813E+01 0.32686869225E+01
 0.29924320889E+01 0.26916874350E+01 0.23905722746E+01 0.21071159351E+01 0.18528541027E+01
 0.16341782256E+01 0.14542127602E+01 0.13142766492E+01 0.12146903722E+01 0.11552165747E+01
 0.11354547058E+01 0.11552165747E+01 0.12146903722E+01 0.13142766492E+01 0.14542127602E+01
 0.16341782256E+01 0.18528541027E+01 0.21071159351E+01 0.23905722746E+01 0.26916874350E+01
 0.29924320889E+01 0.32686869225E+01 0.34931107813E+01 0.36400845959E+01 0.32538938327E+01
 0.32141173959E+01 0.30992783727E+01 0.29218235066E+01 0.26994631704E+01 0.24517791380E+01
 0.21972439001E+01 0.19513807951E+01 0.17261247897E+01 0.15299252737E+01 0.13680760334E+01
 0.12430838256E+01 0.11552165747E+01 0.11033929673E+01 0.10863062899E+01 0.11033929673E+01
 0.11552165747E+01 0.12430838256E+01 0.13680760334E+01 0.15299252737E+01 0.17261247897E+01
 0.19513807951E+01 0.21972439001E+01 0.24517791380E+01 0.26994631704E+01 0.29218235066E+01
 0.30992783727E+01 0.32141173959E+01 0.31303831082E+01 0.30936803530E+01 0.29874494392E+01
 0.28224929453E+01 0.26143560909E+01 0.23805711098E+01 0.21382094492E+01 0.19022827472E+01
 0.16849790694E+01 0.14953627307E+01 0.13392441399E+01 0.12192666644E+01 0.11354547058E+01
 0.10863062899E+01 0.10701567838E+01 0.10863062899E+01 0.11354547058E+01 0.12192666644E+01
 0.13392441399E+01 0.14953627307E+01 0.16849790694E+01 0.19022827472E+01 0.21382094492E+01
 0.23805711098E+01 0.26143560909E+01 0.28224929453E+01 0.29874494392E+01 0.30936803530E+01
 0.32538938327E+01 0.32141173959E+01 0.30992783727E+01 0.29218235066E+01 0.26994631704E+01
 0.24517791380E+01 0.21972439001E+01 0.19513807951E+01 0.17261247897E+01 0.15299252737E+01
 0.13680760334E+01 0.12430838256E+01 0.11552165747E+01 0.11033929673E+01 0.10863062899E+01
 0.11033929673E+01 0.11552165747E+01 0.12430838256E+01 0.13680760334E+01 0.15299252737E+01
 0.17261247897E+01 0.19513807951E+01 0.21972439001E+01 0.24517791380E+01 0.26994631704E+01
 0.29218235066E+01 0.30992783727E+01 0.32141173959E+01 0.36912932104E+01 0.36400845959E+01
 0.34931107813E+01 0.32686869225E+01 0.29924320889E+01 0.26916874350E+01 0.23905722746E+01
 0.21071159351E+01 0.18528541027E+01 0.16341782256E+01 0.14542127602E+01 0.13142766492E+01
 0.12146903722E+01 0.11552165747E+01 0.11354547058E+01 0.11552165747E+01 0.12146903722E+01
 0.13142766492E+01 0.14542127602E+01 0.16341782256E+01 0.18528541027E+01 0.21071159351E+01
 0.23905722746E+01 0.26916874350E+01 0.29924320889E+01 0.32686869225E+01 0.34931107813E+01
 0.36400845959E+01 0.46106650554E+01 0.45349427701E+01 0.43184891525E+01 0.39910155712E+01
 0.35944060587E+01 0.31731595207E+01 0.27650964862E+01 0.23955773905E+01 0.20768515891E+01
 0.18115510902E+01 0.15976478538E+01 0.14324034812E+01 0.13142766492E+01 0.12430838256E+01
 0.12192666644E+01 0.12430838256E+01 0.13142766492E+01 0.14324034812E+01 0.15976478538E+01
 0.18115510902E+01 0.20768515891E+01 0.23955773905E+01 0.27650964862E+01 0.31731595207E+01
 0.35944060587E+01 0.39910155712E+01 0.43184891525E+01 0.45349427701E+01 0.62072271374E+01
 0.60918607503E+01 0.57609630771E+01 0.52583047180E+01 0.46493136503E+01 0.40076453151E+01
 0.33982509250E+01 0.28641549403E+01 0.24228623894E+01 0.20723151263E+01 0.18011662965E+01
 0.15976478538E+01 0.14542127602E+01 0.13680760334E+01 0.13392441399E+01 0.13680760334E+01
 0.14542127602E+01 0.15976478538E+01 0.18011662965E+01 0.20723151263E+01 0.24228623894E+01
 0.28641549403E+01 0.33982509250E+01 0.40076453151E+01 0.46493136503E+01 0.52583047180E+01
 0.57609630771E+01 0.60918607503E+01 0.86364620574E+01 0.84499226606E+01 0.79444034264E+01
 0.72103842718E+01 0.63034597043E+01 0.53280341319E+01 0.43943922768E+01 0.35836324426E+01
 0.29321116442E+01 0.24365792755E+01 0.20723151263E+01 0.18115510902E+01 0.16341782256E+01
 0.15299252737E+01 0.14953627307E+01 0.15299252737E+01 0.16341782256E+01 0.18115510902E+01
 0.20723151263E+01 0.24365792755E+01 0.29321116442E+01 0.35836324426E+01 0.43943922768E+01
 0.53280341319E+01 0.63034597043E+01 0.72103842718E+01 0.79444034264E+01 0.84499226606E+01
 0.14885636954E+02 0.14253129699E+02 0.12602943028E+02 0.10543763058E+02 0.86880378510E+01
 0.72135296666E+01 0.58460354061E+01 0.46311167143E+01 0.36557607299E+01 0.29321116442E+01
 0.24228623894E+01 0.20768515891E+01 0.18528541027E+01 0.17261247897E+01 0.16849790694E+01
 0.17261247897E+01 0.18528541027E+01 0.20768515891E+01 0.24228623894E+01 0.29321116442E+01
 0.36557607299E+01 0.46311167143E+01 0.58460354061E+01 0.72135296666E+01 0.86880378510E+01
 0.10543763058E+02 0.12602943028E+02 0.14253129699E+02 0.32194124517E+02 0.30499383996E+02
 0.25955067326E+02 0.19978483129E+02 0.14296355359E+02 0.10172196140E+02 0.77497824957E+01
 0.60409685857E+01 0.46311167143E+01 0.35836324426E+01 0.28641549403E+01 0.23955773905E+01
 0.21071159351E+01 0.19513807951E+01 0.19022827472E+01 0.19513807951E+01 0.21071159351E+01
 0.23955773905E+01 0.28641549403E+01 0.35836324426E+01 0.46311167143E+01 0.60409685857E+01
 0.77497824957E+01 0.10172196140E+02 0.14296355359E+02 0.19978483129E+02 0.25955067326E+02
 0.30499383996E+02 0.66628755487E+02 0.63164842596E+02 0.53712980265E+02 0.40798075146E+02
 0.27696894892E+02 0.17268393189E+02 0.10853705596E+02 0.77497824957E+01 0.58460354061E+01
 0.43943922768E+01 0.33982509250E+01 0.27650964862E+01 0.23905722746E+01 0.21972439001E+01
 0.21382094492E+01 0.21972439001E+01 0.23905722746E+01 0.27650964862E+01 0.33982509250E+01
 0.43943922768E+01 0.58460354061E+01 0.77497824957E+01 0.10853705596E+02 0.17268393189E+02
 0.27696894892E+02 0.40798075146E+02 0.53712980265E+02 0.63164842596E+02 0.12041880519E+03
 0.11448173466E+03 0.98139779675E+02 0.75355649518E+02 0.51366446624E+02 0.31031062743E+02
 0.17268393189E+02 0.10172196140E+02 0.72135296666E+01 0.53280341319E+01 0.40076453151E+01
 0.31731595207E+01 0.26916874350E+01 0.24517791380E+01 0.23805711098E+01 0.24517791380E+01
 0.26916874350E+01 0.31731595207E+01 0.40076453151E+01 0.53280341319E+01 0.72135296666E+01
 0.10172196140E+02 0.17268393189E+02 0.31031062743E+02 0.51366446624E+02 0.75355649518E+02
 0.98139779675E+02 0.11448173466E+03 0.19048814921E+03 0.18149125812E+03 0.15664963419E+03
 0.12171853650E+03 0.84256652327E+02 0.51366446624E+02 0.27696894892E+02 0.14296355359E+02
 0.86880378510E+01 0.63034597043E+01 0.46493136503E+01 0.35944060587E+01 0.29924320889E+01
 0.26994631704E+01 0.26143560909E+01 0.26994631704E+01 0.29924320889E+01 0.35944060587E+01
 0.46493136503E+01 0.63034597043E+01 0.86880378510E+01 0.14296355359E+02 0.27696894892E+02
 0.51366446624E+02 0.84256652327E+02 0.12171853650E+03 0.15664963419E+03 0.18149125812E+03
 0.26811741660E+03 0.25576326384E+03 0.22165401179E+03 0.17360884179E+03 0.12171853650E+03
 0.75355649518E+02 0.40798075146E+02 0.19978483129E+02 0.10543763058E+02 0.72103842718E+01
 0.52583047180E+01 0.39910155712E+01 0.32686869225E+01 0.29218235066E+01 0.28224929453E+01
 0.29218235066E+01 0.32686869225E+01 0.39910155712E+01 0.52583047180E+01 0.72103842718E+01
 0.10543763058E+02 0.19978483129E+02 0.40798075146E+02 0.75355649518E+02 0.12171853650E+03
 0.17360884179E+03 0.22165401179E+03 0.25576326384E+03 0.34001750807E+03 0.32451548090E+03
 0.28177370207E+03 0.22165401179E+03 0.15664963419E+03 0.98139779675E+02 0.53712980265E+02
 0.25955067326E+02 0.12602943028E+02 0.79444034264E+01 0.57609630771E+01 0.43184891525E+01
 0.34931107813E+01 0.30992783727E+01 0.29874494392E+01 0.30992783727E+01 0.34931107813E+01
 0.43184891525E+01 0.57609630771E+01 0.79444034264E+01 0.12602943028E+02 0.25955067326E+02
 0.53712980265E+02 0.98139779675E+02 0.15664963419E+03 0.22165401179E+03 0.28177370207E+03
 0.32451548090E+03 0.39127200839E+03 0.37348686503E+03 0.32451548090E+03 0.25576326384E+03
 0.18149125812E+03 0.11448173466E+03 0.63164842596E+02 0.30499383996E+02 0.14253129699E+02
 0.84499226606E+01 0.60918607503E+01 0.45349427701E+01 0.36400845959E+01 0.32141173959E+01
 0.30936803530E+01 0.32141173959E+01 0.36400845959E+01 0.45349427701E+01 0.60918607503E+01
 0.84499226606E+01 0.14253129699E+02 0.30499383996E+02 0.63164842596E+02 0.11448173466E+03
 0.18149125812E+03 0.25576326384E+03 0.32451548090E+03 0.37348686503E+03 0.39127200839E+03
 0.37348686503E+03 0.32451548090E+03 0.25576326384E+03 0.18149125812E+03 0.11448173466E+03
 0.63164842596E+02 0.30499383996E+02 0.14253129699E+02 0.84499226606E+01 0.60918607503E+01
 0.45349427701E+01 0.36400845959E+01 0.32141173959E+01 0.30936803530E+01 0.32141173959E+01
 0.36400845959E+01 0.45349427701E+01 0.60918607503E+01 0.84499226606E+01 0.14253129699E+02
 0.30499383996E+02 0.63164842596E+02 0.11448173466E+03 0.18149125812E+03 0.25576326384E+03
 0.32451548090E+03 0.37348686503E+03 0.37348686503E+03 0.35649737366E+03 0.30969429702E+03
 0.24393985447E+03 0.17287688359E+03 0.10880310473E+03 0.59864443158E+02 0.28898008393E+02
 0.13663577201E+02 0.82732533324E+01 0.59789935795E+01 0.44609777660E+01 0.35899506939E+01
 0.31750496358E+01 0.30575819935E+01 0.31750496358E+01 0.35899506939E+01 0.44609777660E+01
 0.59789935795E+01 0.82732533324E+01 0.13663577201E+02 0.28898008393E+02 0.59864443158E+02
 0.10880310473E+03 0.17287688359E+03 0.24393985447E+03 0.30969429702E+03 0.35649737366E+03
 0.32451548090E+03 0.30969429702E+03 0.26881577318E+03 0.21129283518E+03 0.14909750741E+03
 0.93183403173E+02 0.50869773451E+02 0.24611978632E+02 0.12128221415E+02 0.77895901800E+01
 0.56554135653E+01 0.42495458676E+01 0.34460298839E+01 0.30622302635E+01 0.29530788102E+01
 0.30622302635E+01 0.34460298839E+01 0.42495458676E+01 0.56554135653E+01 0.77895901800E+01
 0.12128221415E+02 0.24611978632E+02 0.50869773451E+02 0.93183403173E+02 0.14909750741E+03
 0.21129283518E+03 0.26881577318E+03 0.30969429702E+03 0.25576326384E+03 0.24393985447E+03
 0.21129283518E+03 0.16531064493E+03 0.11568552039E+03 0.71441627093E+02 0.38612441482E+02
 0.18996984245E+02 0.10216902901E+02 0.70722168907E+01 0.51642341591E+01 0.39296389805E+01
 0.32261669764E+01 0.28878162931E+01 0.27907403775E+01 0.28878162931E+01 0.32261669764E+01
 0.39296389805E+01 0.51642341591E+01 0.70722168907E+01 0.10216902901E+02 0.18996984245E+02
 0.38612441482E+02 0.71441627093E+02 0.11568552039E+03 0.16531064493E+03 0.21129283518E+03
 0.24393985447E+03 0.18149125812E+03 0.17287688359E+03 0.14909750741E+03 0.11568552039E+03
 0.79915474396E+02 0.48619050675E+02 0.26235586336E+02 0.13691089576E+02 0.84889215920E+01
 0.61836854324E+01 0.45695791799E+01 0.35420696523E+01 0.29553295773E+01 0.26691224799E+01
 0.25857929985E+01 0.26691224799E+01 0.29553295773E+01 0.35420696523E+01 0.45695791799E+01
 0.61836854324E+01 0.84889215920E+01 0.13691089576E+02 0.26235586336E+02 0.48619050675E+02
 0.79915474396E+02 0.11568552039E+03 0.14909750741E+03 0.17287688359E+03 0.11448173466E+03
 0.10880310473E+03 0.93183403173E+02 0.71441627093E+02 0.48619050675E+02 0.29372414907E+02
 0.16454694341E+02 0.98650602187E+01 0.70735184817E+01 0.52302205642E+01 0.39432607250E+01
 0.31301422487E+01 0.26601857588E+01 0.24253262566E+01 0.23554409942E+01 0.24253262566E+01
 0.26601857588E+01 0.31301422487E+01 0.39432607250E+01 0.52302205642E+01 0.70735184817E+01
 0.98650602187E+01 0.16454694341E+02 0.29372414907E+02 0.48619050675E+02 0.71441627093E+02
 0.93183403173E+02 0.10880310473E+03 0.63164842596E+02 0.59864443158E+02 0.50869773451E+02
 0.38612441482E+02 0.26235586336E+02 0.16454694341E+02 0.10494310945E+02 0.75950603739E+01
 0.57349736154E+01 0.43190139012E+01 0.33483224363E+01 0.27306483761E+01 0.23643096656E+01
 0.21745692146E+01 0.21164822484E+01 0.21745692146E+01 0.23643096656E+01 0.27306483761E+01
 0.33483224363E+01 0.43190139012E+01 0.57349736154E+01 0.75950603739E+01 0.10494310945E+02
 0.16454694341E+02 0.26235586336E+02 0.38612441482E+02 0.50869773451E+02 0.59864443158E+02
 0.30499383996E+02 0.28898008393E+02 0.24611978632E+02 0.18996984245E+02 0.13691089576E+02
 0.98650602187E+01 0.75950603739E+01 0.59250273507E+01 0.45490993093E+01 0.35281503154E+01
 0.28263914444E+01 0.23683091860E+01 0.20854022035E+01 0.19321585764E+01 0.18837384046E+01
 0.19321585764E+01 0.20854022035E+01 0.23683091860E+01 0.28263914444E+01 0.35281503154E+01
 0.45490993093E+01 0.59250273507E+01 0.75950603739E+01 0.98650602187E+01 0.13691089576E+02
 0.18996984245E+02 0.24611978632E+02 0.28898008393E+02 0.14253129699E+02 0.13663577201E+02
 0.12128221415E+02 0.10216902901E+02 0.84889215920E+01 0.70735184817E+01 0.57349736154E+01
 0.45490993093E+01 0.35981345991E+01 0.28921888922E+01 0.23943977770E+01 0.20551816601E+01
 0.18348909951E+01 0.17099231424E+01 0.16692850493E+01 0.17099231424E+01 0.18348909951E+01
 0.20551816601E+01 0.23943977770E+01 0.28921888922E+01 0.35981345991E+01 0.45490993093E+01
 0.57349736154E+01 0.70735184817E+01 0.84889215920E+01 0.10216902901E+02 0.12128221415E+02
 0.13663577201E+02 0.84499226606E+01 0.82732533324E+01 0.77895901800E+01 0.70722168907E+01
 0.61836854324E+01 0.52302205642E+01 0.43190139012E+01 0.35281503154E+01 0.28921888922E+01
 0.24076033583E+01 0.20504453704E+01 0.17940435063E+01 0.16192132846E+01 0.15162805165E+01
 0.14821264941E+01 0.15162805165E+01 0.16192132846E+01 0.17940435063E+01 0.20504453704E+01
 0.24076033583E+01 0.28921888922E+01 0.35281503154E+01 0.43190139012E+01 0.52302205642E+01
 0.61836854324E+01 0.70722168907E+01 0.77895901800E+01 0.82732533324E+01 0.60918607503E+01
 0.59789935795E+01 0.56554135653E+01 0.51642341591E+01 0.45695791799E+01 0.39432607250E+01
 0.33483224363E+01 0.28263914444E+01 0.23943977770E+01 0.20504453704E+01 0.17837508735E+01
 0.15831642481E+01 0.14416001579E+01 0.13565254534E+01 0.13280412300E+01 0.13565254534E+01
 0.14416001579E+01 0.15831642481E+01 0.17837508735E+01 0.20504453704E+01 0.23943977770E+01
 0.28263914444E+01 0.33483224363E+01 0.39432607250E+01 0.45695791799E+01 0.51642341591E+01
 0.56554135653E+01 0.59789935795E+01 0.45349427701E+01 0.44609777660E+01 0.42495458676E+01
 0.39296389805E+01 0.35420696523E+01 0.31301422487E+01 0.27306483761E+01 0.23683091860E+01
 0.20551816601E+01 0.17940435063E+01 0.15831642481E+01 0.14200903683E+01 0.13034631680E+01
 0.12331696752E+01 0.12096547473E+01 0.12331696752E+01 0.13034631680E+01 0.14200903683E+01
 0.15831642481E+01 0.17940435063E+01 0.20551816601E+01 0.23683091860E+01 0.27306483761E+01
 0.31301422487E+01 0.35420696523E+01 0.39296389805E+01 0.42495458676E+01 0.44609777660E+01
 0.36400845959E+01 0.35899506939E+01 0.34460298839E+01 0.32261669764E+01 0.29553295773E+01
 0.26601857588E+01 0.23643096656E+01 0.20854022035E+01 0.18348909951E+01 0.16192132846E+01
 0.14416001579E+01 0.13034631680E+01 0.12051678666E+01 0.11464793889E+01 0.11269820590E+01
 0.11464793889E+01 0.12051678666E+01 0.13034631680E+01 0.14416001579E+01 0.16192132846E+01
 0.18348909951E+01 0.20854022035E+01 0.23643096656E+01 0.26601857588E+01 0.29553295773E+01
 0.32261669764E+01 0.34460298839E+01 0.35899506939E+01 0.32141173959E+01 0.31750496358E+01
 0.30622302635E+01 0.28878162931E+01 0.26691224799E+01 0.24253262566E+01 0.21745692146E+01
 0.19321585764E+01 0.17099231424E+01 0.15162805165E+01 0.13565254534E+01 0.12331696752E+01
 0.11464793889E+01 0.10953664647E+01 0.10785175553E+01 0.10953664647E+01 0.11464793889E+01
 0.12331696752E+01 0.13565254534E+01 0.15162805165E+01 0.17099231424E+01 0.19321585764E+01
 0.21745692146E+01 0.24253262566E+01 0.26691224799E+01 0.28878162931E+01 0.30622302635E+01
 0.31750496358E+01 0.30936803530E+01 0.30575819935E+01 0.29530788102E+01 0.27907403775E+01
 0.25857929985E+01 0.23554409942E+01 0.21164822484E+01 0.18837384046E+01 0.16692850493E+01
 0.14821264941E+01 0.13280412300E+01 0.12096547473E+01 0.11269820590E+01 0.10785175553E+01
 0.10625959894E+01 0.10785175553E+01 0.11269820590E+01 0.12096547473E+01 0.13280412300E+01
 0.14821264941E+01 0.16692850493E+01 0.18837384046E+01 0.21164822484E+01 0.23554409942E+01
 0.25857929985E+01 0.27907403775E+01 0.29530788102E+01 0.30575819935E+01 0.32141173959E+01
 0.31750496358E+01 0.30622302635E+01 0.28878162931E+01 0.26691224799E+01 0.24253262566E+01
 0.21745692146E+01 0.19321585764E+01 0.17099231424E+01 0.15162805165E+01 0.13565254534E+01
 0.12331696752E+01 0.11464793889E+01 0.10953664647E+01 0.10785175553E+01 0.10953664647E+01
 0.11464793889E+01 0.12331696752E+01 0.13565254534E+01 0.15162805165E+01 0.17099231424E+01
 0.19321585764E+01 0.21745692146E+01 0.24253262566E+01 0.26691224799E+01 0.28878162931E+01
 0.30622302635E+01 0.31750496358E+01 0.36400845959E+01 0.35899506939E+01 0.34460298839E+01
 0.32261669764E+01 0.29553295773E+01 0.26601857588E+01 0.23643096656E+01 0.20854022035E+01
 0.18348909951E+01 0.16192132846E+01 0.14416001579E+01 0.13034631680E+01 0.12051678666E+01
 0.11464793889E+01 0.11269820590E+01 0.11464793889E+01 0.12051678666E+01 0.13034631680E+01
 0.14416001579E+01 0.16192132846E+01 0.18348909951E+01 0.20854022035E+01 0.23643096656E+01
 0.26601857588E+01 0.29553295773E+01 0.32261669764E+01 0.34460298839E+01 0.35899506939E+01
 0.45349427701E+01 0.44609777660E+01 0.42495458676E+01 0.39296389805E+01 0.35420696523E+01
 0.31301422487E+01 0.27306483761E+01 0.23683091860E+01 0.20551816601E+01 0.17940435063E+01
 0.15831642481E+01 0.14200903683E+01 0.13034631680E+01 0.12331696752E+01 0.12096547473E+01
 0.12331696752E+01 0.13034631680E+01 0.14200903683E+01 0.15831642481E+01 0.17940435063E+01
 0.20551816601E+01 0.23683091860E+01 0.27306483761E+01 0.31301422487E+01 0.35420696523E+01
 0.39296389805E+01 0.42495458676E+01 0.44609777660E+01 0.60918607503E+01 0.59789935795E+01
 0.56554135653E+01 0.51642341591E+01 0.45695791799E+01 0.39432607250E+01 0.33483224363E+01
 0.28263914444E+01 0.23943977770E+01 0.20504453704E+01 0.17837508735E+01 0.15831642481E+01
 0.14416001579E+01 0.13565254534E+01 0.13280412300E+01 0.13565254534E+01 0.14416001579E+01
 0.15831642481E+01 0.17837508735E+01 0.20504453704E+01 0.23943977770E+01 0.28263914444E+01
 0.33483224363E+01 0.39432607250E+01 0.45695791799E+01 0.51642341591E+01 0.56554135653E+01
 0.59789935795E+01 0.84499226606E+01 0.82732533324E+01 0.77895901800E+01 0.70722168907E+01
 0.61836854324E+01 0.52302205642E+01 0.43190139012E+01 0.35281503154E+01 0.28921888922E+01
 0.24076033583E+01 0.20504453704E+01 0.17940435063E+01 0.16192132846E+01 0.15162805165E+01
 0.14821264941E+01 0.15162805165E+01 0.16192132846E+01 0.17940435063E+01 0.20504453704E+01
 0.24076033583E+01 0.28921888922E+01 0.35281503154E+01 0.43190139012E+01 0.52302205642E+01
 0.61836854324E+01 0.70722168907E+01 0.77895901800E+01 0.82732533324E+01 0.14253129699E+02
 0.13663577201E+02 0.12128221415E+02 0.10216902901E+02 0.84889215920E+01 0.70735184817E+01
 0.57349736154E+01 0.45490993093E+01 0.35981345991E+01 0.28921888922E+01 0.23943977770E+01
 0.20551816601E+01 0.18348909951E+01 0.17099231424E+01 0.16692850493E+01 0.17099231424E+01
 0.18348909951E+01 0.20551816601E+01 0.23943977770E+01 0.28921888922E+01 0.35981345991E+01
 0.45490993093E+01 0.57349736154E+01 0.70735184817E+01 0.84889215920E+01 0.10216902901E+02
 0.12128221415E+02 0.13663577201E+02 0.30499383996E+02 0.28898008393E+02 0.24611978632E+02
 0.18996984245E+02 0.13691089576E+02 0.98650602187E+01 0.75950603739E+01 0.59250273507E+01
 0.45490993093E+01 0.35281503154E+01 0.28263914444E+01 0.23683091860E+01 0.20854022035E+01
 0.19321585764E+01 0.18837384046E+01 0.19321585764E+01 0.20854022035E+01 0.23683091860E+01
 0.28263914444E+01 0.35281503154E+01 0.45490993093E+01 0.59250273507E+01 0.75950603739E+01
 0.98650602187E+01 0.13691089576E+02 0.18996984245E+02 0.24611978632E+02 0.28898008393E+02
 0.63164842596E+02 0.59864443158E+02 0.50869773451E+02 0.38612441482E+02 0.26235586336E+02
 0.16454694341E+02 0.10494310945E+02 0.75950603739E+01 0.57349736154E+01 0.43190139012E+01
 0.33483224363E+01 0.27306483761E+01 0.23643096656E+01 0.21745692146E+01 0.21164822484E+01
 0.21745692146E+01 0.23643096656E+01 0.27306483761E+01 0.33483224363E+01 0.43190139012E+01
 0.57349736154E+01 0.75950603739E+01 0.10494310945E+02 0.16454694341E+02 0.26235586336E+02
 0.38612441482E+02 0.50869773451E+02 0.59864443158E+02 0.11448173466E+03 0.10880310473E+03
 0.93183403173E+02 0.71441627093E+02 0.48619050675E+02 0.29372414907E+02 0.16454694341E+02
 0.98650602187E+01 0.70735184817E+01 0.52302205642E+01 0.39432607250E+01 0.31301422487E+01
 0.26601857588E+01 0.24253262566E+01 0.23554409942E+01 0.24253262566E+01 0.26601857588E+01
 0.31301422487E+01 0.39432607250E+01 0.52302205642E+01 0.70735184817E+01 0.98650602187E+01
 0.16454694341E+02 0.29372414907E+02 0.48619050675E+02 0.71441627093E+02 0.93183403173E+02
 0.10880310473E+03 0.18149125812E+03 0.17287688359E+03 0.14909750741E+03 0.11568552039E+03
 0.79915474396E+02 0.48619050675E+02 0.26235586336E+02 0.13691089576E+02 0.84889215920E+01
 0.61836854324E+01 0.45695791799E+01 0.35420696523E+01 0.29553295773E+01 0.26691224799E+01
 0.25857929985E+01 0.26691224799E+01 0.29553295773E+01 0.35420696523E+01 0.45695791799E+01
 0.61836854324E+01 0.84889215920E+01 0.13691089576E+02 0.26235586336E+02 0.48619050675E+02
 0.79915474396E+02 0.11568552039E+03 0.14909750741E+03 0.17287688359E+03 0.25576326384E+03
 0.24393985447E+03 0.21129283518E+03 0.16531064493E+03 0.11568552039E+03 0.71441627093E+02
 0.38612441482E+02 0.18996984245E+02 0.10216902901E+02 0.70722168907E+01 0.51642341591E+01
 0.39296389805E+01 0.32261669764E+01 0.28878162931E+01 0.27907403775E+01 0.28878162931E+01
 0.32261669764E+01 0.39296389805E+01 0.51642341591E+01 0.70722168907E+01 0.10216902901E+02
 0.18996984245E+02 0.38612441482E+02 0.71441627093E+02 0.11568552039E+03 0.16531064493E+03
 0.21129283518E+03 0.24393985447E+03 0.32451548090E+03 0.30969429702E+03 0.26881577318E+03
 0.21129283518E+03 0.14909750741E+03 0.93183403173E+02 0.50869773451E+02 0.24611978632E+02
 0.12128221415E+02 0.77895901800E+01 0.56554135653E+01 0.42495458676E+01 0.34460298839E+01
 0.30622302635E+01 0.29530788102E+01 0.30622302635E+01 0.34460298839E+01 0.42495458676E+01
 0.56554135653E+01 0.77895901800E+01 0.12128221415E+02 0.24611978632E+02 0.50869773451E+02
 0.93183403173E+02 0.14909750741E+03 0.21129283518E+03 0.26881577318E+03 0.30969429702E+03
 0.37348686503E+03 0.35649737366E+03 0.30969429702E+03 0.24393985447E+03 0.17287688359E+03
 0.10880310473E+03 0.59864443158E+02 0.28898008393E+02 0.13663577201E+02 0.82732533324E+01
 0.59789935795E+01 0.44609777660E+01 0.35899506939E+01 0.31750496358E+01 0.30575819935E+01
 0.31750496358E+01 0.35899506939E+01 0.44609777660E+01 0.59789935795E+01 0.82732533324E+01
 0.13663577201E+02 0.28898008393E+02 0.59864443158E+02 0.10880310473E+03 0.17287688359E+03
 0.24393985447E+03 0.30969429702E+03 0.35649737366E+03 0.34001750807E+03 0.32451548090E+03
 0.28177370207E+03 0.22165401179E+03 0.15664963419E+03 0.98139779675E+02 0.53712980265E+02
 0.25955067326E+02 0.12602943028E+02 0.79444034264E+01 0.57609630771E+01 0.43184891525E+01
 0.34931107813E+01 0.30992783727E+01 0.29874494392E+01 0.30992783727E+01 0.34931107813E+01
 0.43184891525E+01 0.57609630771E+01 0.79444034264E+01 0.12602943028E+02 0.25955067326E+02
 0.53712980265E+02 0.98139779675E+02 0.15664963419E+03 0.22165401179E+03 0.28177370207E+03
 0.32451548090E+03 0.32451548090E+03 0.30969429702E+03 0.26881577318E+03 0.21129283518E+03
 0.14909750741E+03 0.93183403173E+02 0.50869773451E+02 0.24611978632E+02 0.12128221415E+02
 0.77895901800E+01 0.56554135653E+01 0.42495458676E+01 0.34460298839E+01 0.30622302635E+01
 0.29530788102E+01 0.30622302635E+01 0.34460298839E+01 0.42495458676E+01 0.56554135653E+01
 0.77895901800E+01 0.12128221415E+02 0.24611978632E+02 0.50869773451E+02 0.93183403173E+02
 0.14909750741E+03 0.21129283518E+03 0.26881577318E+03 0.30969429702E+03 0.28177370207E+03
 0.26881577318E+03 0.23304911831E+03 0.18268285634E+03 0.12827180850E+03 0.79582176850E+02