   1   1   0   0
  0.2700000E+02  0.3000000E-09  0.3000000E-09  0.3000000E-09  0.5000000E-15
  1.000000000000000E-004
  CAR 
 sc Cu                                   
     18.40075264     -6.70177092  301     -1.05294980      1.00000000
     -6.702  0.0000E+00  0.0000E+00
     -6.618  0.0000E+00  0.0000E+00
     -6.534  0.0000E+00  0.0000E+00
     -6.451  0.0000E+00  0.0000E+00
     -6.367  0.0000E+00  0.0000E+00
     -6.283  0.0000E+00  0.0000E+00
     -6.200  0.0000E+00  0.0000E+00
     -6.116  0.0000E+00  0.0000E+00
     -6.032  0.0000E+00  0.0000E+00
     -5.949  0.0000E+00  0.0000E+00
     -5.865  0.0000E+00  0.0000E+00
     -5.781  0.2430E-10  0.2033E-11
     -5.698  0.5954E-05  0.4982E-06
     -5.614  0.7300E-02  0.6113E-03
     -5.530  0.8180E-01  0.7456E-02
     -5.447  0.2162E-01  0.9265E-02
     -5.363  0.5538E-01  0.1390E-01
     -5.279  0.2497E+00  0.3480E-01
     -5.196  0.2765E-01  0.3711E-01
     -5.112  0.1119E+00  0.4648E-01
     -5.028  0.2107E+00  0.6411E-01
     -4.945  0.2284E-01  0.6602E-01
     -4.861  0.2890E+00  0.9021E-01
     -4.777  0.1382E+00  0.1018E+00
     -4.694  0.8524E-01  0.1089E+00
     -4.610  0.5065E+00  0.1513E+00
     -4.526  0.7375E-01  0.1575E+00
     -4.443  0.1021E+00  0.1660E+00
     -4.359  0.2235E+00  0.1847E+00
     -4.275  0.2112E+00  0.2024E+00
     -4.192  0.3867E+00  0.2347E+00
     -4.108  0.1380E+00  0.2463E+00
     -4.024  0.5766E+00  0.2945E+00
     -3.940  0.3353E+00  0.3226E+00
     -3.857  0.1477E+00  0.3349E+00
     -3.773  0.2071E+00  0.3523E+00
     -3.689  0.4423E+00  0.3893E+00
     -3.606  0.5721E+00  0.4371E+00
     -3.522  0.4692E+00  0.4764E+00
     -3.438  0.9059E+00  0.5522E+00
     -3.355  0.4884E+00  0.5931E+00
     -3.271  0.8681E+00  0.6657E+00
     -3.187  0.1040E+01  0.7528E+00
     -3.104  0.1188E+01  0.8521E+00
     -3.020  0.2818E+01  0.1088E+01
     -2.936  0.6652E+01  0.1645E+01
     -2.853  0.1084E+02  0.2552E+01
     -2.769  0.1056E+02  0.3436E+01
     -2.685  0.6831E+01  0.4007E+01
     -2.602  0.9704E+01  0.4819E+01
     -2.518  0.7739E+01  0.5467E+01
     -2.434  0.8472E+01  0.6176E+01
     -2.351  0.1287E+02  0.7253E+01
     -2.267  0.1378E+02  0.8406E+01
     -2.183  0.1205E+02  0.9414E+01
     -2.100  0.8423E+01  0.1012E+02
     -2.016  0.3277E+01  0.1039E+02
     -1.932  0.2372E+01  0.1059E+02
     -1.849  0.6958E+00  0.1065E+02
     -1.765  0.4527E+00  0.1069E+02
     -1.681  0.4098E+00  0.1072E+02
     -1.598  0.5256E+00  0.1077E+02
     -1.514  0.4627E+00  0.1080E+02
     -1.430  0.1089E-01  0.1081E+02
     -1.347  0.2850E+00  0.1083E+02
     -1.263  0.6978E+00  0.1089E+02
     -1.179  0.4188E+00  0.1092E+02
     -1.096  0.6023E+00  0.1097E+02
     -1.012  0.6285E+00  0.1103E+02
     -0.928  0.1797E+00  0.1104E+02
     -0.845  0.2635E+00  0.1106E+02
     -0.761  0.6489E+00  0.1112E+02
     -0.677  0.6885E+00  0.1118E+02
     -0.593  0.3736E+00  0.1121E+02
     -0.510  0.5980E+00  0.1126E+02
     -0.426  0.3881E-01  0.1126E+02
     -0.342  0.1975E+00  0.1128E+02
     -0.259  0.7698E+00  0.1134E+02
     -0.175  0.4591E+00  0.1138E+02
     -0.091  0.5541E+00  0.1143E+02
     -0.008  0.3377E+00  0.1145E+02
      0.076  0.2176E+00  0.1147E+02
      0.160  0.4058E+00  0.1151E+02
      0.243  0.1272E+00  0.1152E+02
      0.327  0.6785E+00  0.1157E+02
      0.411  0.5499E+00  0.1162E+02
      0.494  0.4306E+00  0.1166E+02
      0.578  0.3671E+00  0.1169E+02
      0.662  0.3681E+00  0.1172E+02
      0.745  0.7776E+00  0.1178E+02
      0.829  0.5743E+00  0.1183E+02
      0.913  0.4271E+00  0.1187E+02
      0.996  0.8776E-01  0.1187E+02
      1.080  0.6304E+00  0.1193E+02
      1.164  0.6363E+00  0.1198E+02
      1.247  0.3124E-01  0.1198E+02
      1.331  0.2405E-03  0.1198E+02
      1.415  0.1005E+00  0.1199E+02
      1.498  0.6514E+00  0.1204E+02
      1.582  0.6075E+00  0.1210E+02
      1.666  0.1990E+00  0.1211E+02
      1.749  0.1320E+01  0.1222E+02
      1.833  0.5463E+00  0.1227E+02
      1.917  0.3421E-01  0.1227E+02
      2.000  0.4635E+00  0.1231E+02
      2.084  0.1786E+00  0.1232E+02
      2.168  0.6367E+00  0.1238E+02
      2.251  0.1272E+01  0.1248E+02
      2.335  0.8759E-01  0.1249E+02
      2.419  0.5281E+00  0.1254E+02
      2.502  0.7602E+00  0.1260E+02
      2.586  0.3692E+00  0.1263E+02
      2.670  0.8125E+00  0.1270E+02
      2.754  0.2514E+00  0.1272E+02
      2.837  0.3768E+00  0.1275E+02
      2.921  0.6971E+00  0.1281E+02
      3.005  0.8923E+00  0.1288E+02
      3.088  0.4244E+00  0.1292E+02
      3.172  0.2051E+00  0.1294E+02
      3.256  0.5315E+00  0.1298E+02
      3.339  0.4438E+00  0.1302E+02
      3.423  0.2348E+00  0.1304E+02
      3.507  0.3455E+00  0.1307E+02
      3.590  0.7459E+00  0.1313E+02
      3.674  0.1147E+01  0.1323E+02
      3.758  0.7951E+00  0.1329E+02
      3.841  0.2917E+00  0.1332E+02
      3.925  0.4131E+00  0.1335E+02
      4.009  0.6256E-01  0.1336E+02
      4.092  0.6810E+00  0.1341E+02
      4.176  0.5844E+00  0.1346E+02
      4.260  0.2532E+00  0.1348E+02
      4.343  0.6679E+00  0.1354E+02
      4.427  0.4294E+00  0.1357E+02
      4.511  0.6450E+00  0.1363E+02
      4.594  0.4698E+00  0.1367E+02
      4.678  0.4457E+00  0.1371E+02
      4.762  0.7155E+00  0.1377E+02
      4.845  0.4682E+00  0.1380E+02
      4.929  0.9412E+00  0.1388E+02
      5.013  0.3935E+00  0.1392E+02
      5.096  0.2131E+00  0.1393E+02
      5.180  0.5849E+00  0.1398E+02
      5.264  0.5160E+00  0.1403E+02
      5.347  0.2971E+00  0.1405E+02
      5.431  0.8880E-01  0.1406E+02
      5.515  0.6387E+00  0.1411E+02
      5.598  0.7404E+00  0.1417E+02
      5.682  0.3662E+00  0.1420E+02
      5.766  0.5169E+00  0.1425E+02
      5.849  0.1589E+00  0.1426E+02
      5.933  0.4882E+00  0.1430E+02
      6.017  0.1172E+01  0.1440E+02
      6.101  0.1037E+01  0.1449E+02
      6.184  0.8869E+00  0.1456E+02
      6.268  0.5855E+00  0.1461E+02
      6.352  0.2515E+00  0.1463E+02
      6.435  0.9660E-01  0.1464E+02
      6.519  0.2240E-01  0.1464E+02
      6.603  0.4458E+00  0.1468E+02
      6.686  0.3571E+00  0.1471E+02
      6.770  0.6548E+00  0.1476E+02
      6.854  0.9758E+00  0.1484E+02
      6.937  0.2336E+00  0.1486E+02
      7.021  0.9733E+00  0.1495E+02
      7.105  0.2210E+00  0.1496E+02
      7.188  0.3848E+00  0.1500E+02
      7.272  0.2948E+00  0.1502E+02
      7.356  0.9040E+00  0.1510E+02
      7.439  0.1136E+01  0.1519E+02
      7.523  0.3798E+00  0.1522E+02
      7.607  0.1764E+00  0.1524E+02
      7.690  0.3338E-01  0.1524E+02
      7.774  0.3612E-01  0.1524E+02
      7.858  0.4382E+00  0.1528E+02
      7.941  0.7715E+00  0.1534E+02
      8.025  0.1265E+01  0.1545E+02
      8.109  0.8959E+00  0.1553E+02
      8.192  0.3558E+00  0.1556E+02
      8.276  0.1166E+01  0.1565E+02
      8.360  0.8070E+00  0.1572E+02
      8.443  0.1029E+01  0.1581E+02
      8.527  0.2105E+00  0.1582E+02
      8.611  0.1597E+00  0.1584E+02
      8.694  0.4462E+00  0.1587E+02
      8.778  0.9317E+00  0.1595E+02
      8.862  0.9948E+00  0.1604E+02
      8.945  0.6322E+00  0.1609E+02
      9.029  0.8496E+00  0.1616E+02
      9.113  0.8978E+00  0.1624E+02
      9.196  0.6131E+00  0.1629E+02
      9.280  0.2353E+00  0.1631E+02
      9.364  0.4928E+00  0.1635E+02
      9.448  0.1988E+01  0.1651E+02
      9.531  0.6904E+00  0.1657E+02
      9.615  0.5129E+00  0.1661E+02
      9.699  0.8139E+00  0.1668E+02
      9.782  0.2866E+00  0.1671E+02
      9.866  0.6733E+00  0.1676E+02
      9.950  0.2861E+00  0.1679E+02
     10.033  0.4125E-01  0.1679E+02
     10.117  0.5013E+00  0.1683E+02
     10.201  0.7287E+00  0.1689E+02
     10.284  0.1046E+01  0.1698E+02
     10.368  0.6681E+00  0.1704E+02
     10.452  0.5362E+00  0.1708E+02
     10.535  0.3818E+00  0.1711E+02
     10.619  0.1989E+00  0.1713E+02
     10.703  0.1222E+01  0.1723E+02
     10.786  0.1907E+01  0.1739E+02
     10.870  0.4430E+00  0.1743E+02
     10.954  0.7261E+00  0.1749E+02
     11.037  0.6708E+00  0.1755E+02
     11.121  0.7579E+00  0.1761E+02
     11.205  0.5600E+00  0.1766E+02
     11.288  0.4927E-01  0.1766E+02
     11.372  0.5701E+00  0.1771E+02
     11.456  0.1164E+01  0.1781E+02
     11.539  0.8878E+00  0.1788E+02
     11.623  0.6130E+00  0.1793E+02
     11.707  0.5011E+00  0.1797E+02
     11.790  0.5788E+00  0.1802E+02
     11.874  0.6247E+00  0.1807E+02
     11.958  0.7604E+00  0.1814E+02
     12.041  0.2911E+00  0.1816E+02
     12.125  0.5014E+00  0.1820E+02
     12.209  0.1139E+00  0.1821E+02
     12.292  0.3812E+00  0.1825E+02
     12.376  0.1168E+01  0.1834E+02
     12.460  0.1765E+00  0.1836E+02
     12.543  0.4503E+00  0.1840E+02
     12.627  0.6211E+00  0.1845E+02
     12.711  0.1306E+01  0.1856E+02
     12.795  0.5032E+00  0.1860E+02
     12.878  0.4334E-01  0.1860E+02
     12.962  0.2800E+00  0.1863E+02
     13.046  0.4499E+00  0.1866E+02
     13.129  0.4577E+00  0.1870E+02
     13.213  0.5001E+00  0.1874E+02
     13.297  0.1009E+01  0.1883E+02
     13.380  0.6881E+00  0.1889E+02
     13.464  0.3015E+00  0.1891E+02
     13.548  0.5695E+00  0.1896E+02
     13.631  0.9664E+00  0.1904E+02
     13.715  0.1810E+00  0.1905E+02
     13.799  0.1535E-01  0.1906E+02
     13.882  0.9959E-01  0.1906E+02
     13.966  0.6718E+00  0.1912E+02
     14.050  0.6009E+00  0.1917E+02
     14.133  0.6852E-01  0.1918E+02
     14.217  0.1588E+00  0.1919E+02
     14.301  0.3022E+00  0.1921E+02
     14.384  0.4919E+00  0.1926E+02
     14.468  0.1474E+00  0.1927E+02
     14.552  0.2791E+00  0.1929E+02
     14.635  0.7621E+00  0.1936E+02
     14.719  0.1205E+01  0.1946E+02
     14.803  0.8881E+00  0.1953E+02
     14.886  0.2941E+00  0.1956E+02
     14.970  0.3371E+00  0.1958E+02
     15.054  0.6632E+00  0.1964E+02
     15.137  0.2971E+00  0.1966E+02
     15.221  0.1610E+00  0.1968E+02
     15.305  0.2382E+00  0.1970E+02
     15.388  0.1526E+00  0.1971E+02
     15.472  0.6165E+00  0.1976E+02
     15.556  0.4291E+00  0.1980E+02
     15.639  0.4993E+00  0.1984E+02
     15.723  0.1464E+00  0.1985E+02
     15.807  0.2177E+00  0.1987E+02
     15.891  0.9892E-02  0.1987E+02
     15.974  0.3544E-05  0.1987E+02
     16.058  0.6085E-11  0.1987E+02
     16.142  0.1248E-09  0.1987E+02
     16.225  0.2748E-04  0.1987E+02
     16.309  0.3432E-01  0.1987E+02
     16.393  0.4620E+00  0.1991E+02
     16.476  0.2330E+00  0.1993E+02
     16.560  0.2455E+00  0.1995E+02
     16.644  0.2113E-01  0.1995E+02
     16.727  0.7456E-04  0.1995E+02
     16.811  0.2000E-01  0.1996E+02
     16.895  0.8256E-01  0.1996E+02
     16.978  0.1428E-01  0.1996E+02
     17.062  0.8038E-01  0.1997E+02
     17.146  0.2414E-01  0.1997E+02
     17.229  0.6453E-01  0.1998E+02
     17.313  0.2454E+00  0.2000E+02
     17.397  0.2190E-01  0.2000E+02
     17.480  0.1786E-04  0.2000E+02
     17.564  0.7289E-10  0.2000E+02
     17.648  0.0000E+00  0.2000E+02
     17.731  0.0000E+00  0.2000E+02
     17.815  0.0000E+00  0.2000E+02
     17.899  0.0000E+00  0.2000E+02
     17.982  0.0000E+00  0.2000E+02
     18.066  0.0000E+00  0.2000E+02
     18.150  0.0000E+00  0.2000E+02
     18.233  0.0000E+00  0.2000E+02
     18.317  0.0000E+00  0.2000E+02
     18.401  0.0000E+00  0.2000E+02
