    1    1    1    1
  0.2700000E+02  0.3000000E-09  0.3000000E-09  0.3000000E-09  0.5000000E-15
  1.000000000000000E-004
  CAR 
 sc Cu                                   
     11     56     10
 
  0.4166667E-01  0.4166667E-01  0.4166667E-01  0.4629630E-02
      1         -5.560747   1.000000
      2         -3.029240   1.000000
      3         -3.029240   1.000000
      4         -2.147399   1.000000
      5         -2.145711   1.000000
      6         -2.145711   1.000000
      7         10.069440   0.000000
      8         10.069440   0.000000
      9         10.221170   0.000000
     10         14.033581   0.000000
 
  0.1250000E+00  0.4166667E-01  0.4166667E-01  0.1388889E-01
      1         -5.328818   1.000000
      2         -3.015842   1.000000
      3         -2.973000   1.000000
      4         -2.182118   1.000000
      5         -2.181255   1.000000
      6         -2.143069   1.000000
      7          7.959935   0.000000
      8         10.323651   0.000000
      9         10.436446   0.000000
     10         14.218413   0.000000
 
  0.2083333E+00  0.4166667E-01  0.4166667E-01  0.1388889E-01
      1         -4.882278   1.000000
      2         -2.992596   1.000000
      3         -2.856159   1.000000
      4         -2.242030   1.000000
      5         -2.240961   1.000000
      6         -2.137876   1.000000
      7          5.715092   0.000000
      8         10.815509   0.000000
      9         10.931831   0.000000
     10         14.586386   0.000000
 
  0.2916667E+00  0.4166667E-01  0.4166667E-01  0.1388889E-01
      1         -4.280511   1.000000
      2         -2.965399   1.000000
      3         -2.648639   1.000000
      4         -2.310624   1.000000
      5         -2.300235   1.000000
      6         -2.131801   1.000000
      7          3.628424   0.000000
      8         11.511250   0.000000
      9         11.637430   0.000000
     10         15.132147   0.000000
 
  0.3750000E+00  0.4166667E-01  0.4166667E-01  0.1388889E-01
      1         -3.705551   1.000000
      2         -2.941653   1.000000
      3         -2.414308   1.000000
      4         -2.368904   1.000000
      5         -2.130535   1.000000
      6         -2.124452   1.000000
      7          1.751541   0.000000
      8         12.338290   0.000000
      9         12.489678   0.000000
     10         15.740230   0.000000
 
  0.4583333E+00  0.4166667E-01  0.4166667E-01  0.1388889E-01
      1         -3.412410   1.000000
      2         -2.927855   1.000000
      3         -2.425968   1.000000
      4         -2.402001   1.000000
      5         -2.123616   1.000000
      6         -1.224248   0.999999
      7          0.118278   0.000000
      8         13.072058   0.000000
      9         13.282278   0.000000
     10         15.487524   0.000000
 
  0.1250000E+00  0.1250000E+00  0.4166667E-01  0.1388889E-01
      1         -5.097345   1.000000
      2         -2.981059   1.000000
      3         -2.938047   1.000000
      4         -2.218221   1.000000
      5         -2.182559   1.000000
      6         -2.173652   1.000000
      7          8.024504   0.000000
      8          8.391201   0.000000
      9         10.640590   0.000000
     10         14.631243   0.000000
 
  0.2083333E+00  0.1250000E+00  0.4166667E-01  0.2777778E-01
      1         -4.653222   1.000000
      2         -2.949516   1.000000
      3         -2.830518   1.000000
      4         -2.276827   1.000000
      5         -2.237460   1.000000
      6         -2.171395   1.000000
      7          5.937325   0.000000
      8          8.705467   0.000000
      9         11.132856   0.000000
     10         14.986937   0.000000
 
  0.2916667E+00  0.1250000E+00  0.4166667E-01  0.2777778E-01
      1         -4.062455   1.000000
      2         -2.919021   1.000000
      3         -2.647838   1.000000
      4         -2.322307   1.000000
      5         -2.288567   1.000000
      6         -2.164506   1.000000
      7          3.854448   0.000000
      8          9.386667   0.000000
      9         11.832236   0.000000
     10         15.431972   0.000000
 
  0.3750000E+00  0.1250000E+00  0.4166667E-01  0.2777778E-01
      1         -3.522099   1.000000
      2         -2.890844   1.000000
      3         -2.532356   1.000000
      4         -2.368275   1.000000
      5         -2.159358   1.000000
      6         -1.979338   1.000000
      7          1.977610   0.000000
      8         10.241902   0.000000
      9         12.671225   0.000000
     10         14.719633   0.000000
 
  0.4583333E+00  0.1250000E+00  0.4166667E-01  0.2777778E-01
      1         -3.262191   1.000000
      2         -2.871702   1.000000
      3         -2.548877   1.000000
      4         -2.400156   1.000000
      5         -2.155628   1.000000
      6         -1.050164   0.468600
      7          0.349669   0.000000
      8         11.095402   0.000000
      9         13.370755   0.000000
     10         13.590403   0.000000
 
  0.2083333E+00  0.2083333E+00  0.4166667E-01  0.1388889E-01
      1         -4.219938   1.000000
      2         -2.886113   1.000000
      3         -2.756872   1.000000
      4         -2.326662   1.000000
      5         -2.236250   1.000000
      6         -2.221997   1.000000
      7          6.084628   0.000000
      8          6.776454   0.000000
      9         11.621674   0.000000
     10         15.279830   0.000000
 
  0.2916667E+00  0.2083333E+00  0.4166667E-01  0.2777778E-01
      1         -3.674457   1.000000
      2         -2.834872   1.000000
      3         -2.626875   1.000000
      4         -2.319242   1.000000
      5         -2.260541   1.000000
      6         -2.217495   1.000000
      7          4.273388   0.000000
      8          7.179781   0.000000
      9         12.309288   0.000000
     10         14.330069   0.000000
 
  0.3750000E+00  0.2083333E+00  0.4166667E-01  0.2777778E-01
      1         -3.250264   1.000000
      2         -2.790199   1.000000
      3         -2.613105   1.000000
      4         -2.358217   1.000000
      5         -2.214462   1.000000
      6         -1.754789   1.000000
      7          2.411990   0.000000
      8          8.017160   0.000000
      9         12.560885   0.000000
     10         13.266242   0.000000
 
  0.4583333E+00  0.2083333E+00  0.4166667E-01  0.2777778E-01
      1         -3.076166   1.000000
      2         -2.740954   1.000000
      3         -2.668416   1.000000
      4         -2.389212   1.000000
      5         -2.209984   1.000000
      6         -0.752200   0.000000
      7          0.807237   0.000000
      8          8.869183   0.000000
      9         11.345839   0.000000
     10         13.989845   0.000000
 
  0.2916667E+00  0.2916667E+00  0.4166667E-01  0.1388889E-01
      1         -3.282743   1.000000
      2         -2.799320   1.000000
      3         -2.498578   1.000000
      4         -2.305407   1.000000
      5         -2.277049   1.000000
      6         -2.055236   1.000000
      7          4.476186   0.000000
      8          5.559118   0.000000
      9         12.314551   0.000000
     10         13.125853   0.000000
 
  0.3750000E+00  0.2916667E+00  0.4166667E-01  0.2777778E-01
      1         -3.068061   1.000000
      2         -2.830758   1.000000
      3         -2.411782   1.000000
      4         -2.345963   1.000000
      5         -2.274743   1.000000
      6         -1.335718   1.000000
      7          2.995139   0.000000
      8          5.998914   0.000000
      9         10.682248   0.000000
     10         13.919078   0.000000
 
  0.4583333E+00  0.2916667E+00  0.4166667E-01  0.2777778E-01
      1         -2.975982   1.000000
      2         -2.868872   1.000000
      3         -2.384104   1.000000
      4         -2.376165   1.000000
      5         -2.268081   1.000000
      6         -0.277126   0.000000
      7          1.451244   0.000000
      8          6.775694   0.000000
      9          9.439401   0.000000
     10         14.715677   0.000000
 
  0.3750000E+00  0.3750000E+00  0.4166667E-01  0.1388889E-01
      1         -2.992353   1.000000
      2         -2.898476   1.000000
      3         -2.339431   1.000000
      4         -2.331549   1.000000
      5         -2.200425   1.000000
      6         -0.558711   0.000000
      7          3.276482   0.000000
      8          4.639826   0.000000
      9          9.022413   0.000000
     10         14.776262   0.000000
 
  0.4583333E+00  0.3750000E+00  0.4166667E-01  0.2777778E-01
      1         -2.984752   1.000000
      2         -2.912577   1.000000
      3         -2.364946   1.000000
      4         -2.329001   1.000000
      5         -2.115013   1.000000
      6          0.483060   0.000000
      7          2.181687   0.000000
      8          4.903625   0.000000
      9          7.854219   0.000000
     10         15.585777   0.000000
 
  0.4583333E+00  0.4583333E+00  0.4166667E-01  0.1388889E-01
      1         -3.036834   1.000000
      2         -2.889627   1.000000
      3         -2.358947   1.000000
      4         -2.357763   1.000000
      5         -1.986008   1.000000
      6          1.520196   0.000000
      7          2.604610   0.000000
      8          3.498830   0.000000
      9          6.817235   0.000000
     10         16.377185   0.000000
 
  0.1250000E+00  0.1250000E+00  0.1250000E+00  0.4629630E-02
      1         -4.866340   1.000000
      2         -2.924839   1.000000
      3         -2.924839   1.000000
      4         -2.216630   1.000000
      5         -2.212530   1.000000
      6         -2.212530   1.000000
      7          8.269167   0.000000
      8          8.269167   0.000000
      9          8.830267   0.000000
     10         17.034307   0.000000
 
  0.2083333E+00  0.1250000E+00  0.1250000E+00  0.1388889E-01
      1         -4.424958   1.000000
      2         -2.901539   1.000000
      3         -2.811144   1.000000
      4         -2.279134   1.000000
      5         -2.263244   1.000000
      6         -2.206390   1.000000
      7          6.162214   0.000000
      8          8.744725   0.000000
      9          9.156825   0.000000
     10         17.259729   0.000000
 
  0.2916667E+00  0.1250000E+00  0.1250000E+00  0.1388889E-01
      1         -3.847054   1.000000
      2         -2.873602   1.000000
      3         -2.644811   1.000000
      4         -2.355010   1.000000
      5         -2.257926   1.000000
      6         -2.194426   1.000000
      7          4.082144   0.000000
      8          9.422732   0.000000
      9          9.839015   0.000000
     10         16.359330   0.000000
 
  0.3750000E+00  0.1250000E+00  0.1250000E+00  0.1388889E-01
      1         -3.343047   1.000000
      2         -2.847957   1.000000
      3         -2.567545   1.000000
      4         -2.420380   1.000000
      5         -2.195616   1.000000
      6         -1.846545   1.000000
      7          2.206285   0.000000
      8         10.242765   0.000000
      9         10.729837   0.000000
     10         14.873182   0.000000
 
  0.4583333E+00  0.1250000E+00  0.1250000E+00  0.1388889E-01
      1         -3.107590   1.000000
      2         -2.832190   1.000000
      3         -2.589594   1.000000
      4         -2.458452   1.000000
      5         -2.190286   1.000000
      6         -0.891028   0.000002
      7          0.590237   0.000000
      8         10.993624   0.000000
      9         11.733360   0.000000
     10         13.505982   0.000000
 
  0.2083333E+00  0.2083333E+00  0.1250000E+00  0.1388889E-01
      1         -3.996257   1.000000
      2         -2.833336   1.000000
      3         -2.746017   1.000000
      4         -2.327125   1.000000
      5         -2.265800   1.000000
      6         -2.247120   1.000000
      7          6.332256   0.000000
      8          6.966432   0.000000
      9          9.447842   0.000000
     10         16.506004   0.000000
 
  0.2916667E+00  0.2083333E+00  0.1250000E+00  0.2777778E-01
      1         -3.472391   1.000000
      2         -2.791361   1.000000
      3         -2.621912   1.000000
      4         -2.378634   1.000000
      5         -2.272512   1.000000
      6         -2.165173   1.000000
      7          4.506481   0.000000
      8          7.388590   0.000000
      9         10.117669   0.000000
     10         14.637403   0.000000
 
  0.3750000E+00  0.2083333E+00  0.1250000E+00  0.2777778E-01
      1         -3.089913   1.000000
      2         -2.759875   1.000000
      3         -2.609141   1.000000
      4         -2.433825   1.000000
      5         -2.254138   1.000000
      6         -1.604603   1.000000
      7          2.645608   0.000000
      8          8.221610   0.000000
      9         10.948602   0.000000
     10         12.968416   0.000000
 
  0.4583333E+00  0.2083333E+00  0.1250000E+00  0.2777778E-01
      1         -2.925642   1.000000
      2         -2.730803   1.000000
      3         -2.659537   1.000000
      4         -2.470104   1.000000
      5         -2.246839   1.000000
      6         -0.590390   0.000000
      7          1.056558   0.000000
      8          9.055022   0.000000
      9         11.428620   0.000000
     10         12.091211   0.000000
 
  0.2916667E+00  0.2916667E+00  0.1250000E+00  0.1388889E-01
      1         -3.124662   1.000000
      2         -2.761211   1.000000
      3         -2.502697   1.000000
      4         -2.384730   1.000000
      5         -2.317587   1.000000
      6         -1.897496   1.000000
      7          4.731835   0.000000
      8          5.751886   0.000000
      9         10.740646   0.000000
     10         12.752640   0.000000
 
  0.3750000E+00  0.2916667E+00  0.1250000E+00  0.2777778E-01
      1         -2.950715   1.000000
      2         -2.789788   1.000000
      3         -2.436721   1.000000
      4         -2.420923   1.000000
      5         -2.296524   1.000000
      6         -1.144847   0.995328
      7          3.238431   0.000000
      8          6.206634   0.000000
      9         10.739657   0.000000
     10         11.918481   0.000000
 
  0.4583333E+00  0.2916667E+00  0.1250000E+00  0.2777778E-01
      1         -2.873823   1.000000
      2         -2.822848   1.000000
      3         -2.458031   1.000000
      4         -2.415743   1.000000
      5         -2.275283   1.000000
      6         -0.091865   0.000000
      7          1.706180   0.000000
      8          6.983228   0.000000
      9          9.624347   0.000000
     10         12.681188   0.000000
 
  0.3750000E+00  0.3750000E+00  0.1250000E+00  0.1388889E-01
      1         -2.934571   1.000000
      2         -2.808927   1.000000
      3         -2.415810   1.000000
      4         -2.410191   1.000000
      5         -2.181428   1.000000
      6         -0.345113   0.000000
      7          3.544611   0.000000
      8          4.830125   0.000000
      9          9.200169   0.000000
     10         12.663514   0.000000
 
  0.4583333E+00  0.3750000E+00  0.1250000E+00  0.2777778E-01
      1         -2.959439   1.000000
      2         -2.792111   1.000000
      3         -2.444123   1.000000
      4         -2.404805   1.000000
      5         -2.100420   1.000000
      6          0.692165   0.000000
      7          2.444393   0.000000
      8          5.114199   0.000000
      9          8.043840   0.000000
     10         13.560048   0.000000
 
  0.4583333E+00  0.4583333E+00  0.1250000E+00  0.1388889E-01
      1         -3.011537   1.000000
      2         -2.768167   1.000000
      3         -2.436086   1.000000
      4         -2.435017   1.000000
      5         -1.982038   1.000000
      6          1.740423   0.000000
      7          2.884690   0.000000
      8          3.701727   0.000000
      9          7.001055   0.000000
     10         14.484424   0.000000
 
  0.2083333E+00  0.2083333E+00  0.2083333E+00  0.4629630E-02
      1         -3.589343   1.000000
      2         -2.726424   1.000000
      3         -2.726424   1.000000
      4         -2.340640   1.000000
      5         -2.340640   1.000000
      6         -2.222125   1.000000
      7          6.811305   0.000000
      8          6.811305   0.000000
      9          7.797211   0.000000
     10         16.843120   0.000000
 
  0.2916667E+00  0.2083333E+00  0.2083333E+00  0.1388889E-01
      1         -3.151469   1.000000
      2         -2.701362   1.000000
      3         -2.606350   1.000000
      4         -2.426358   1.000000
      5         -2.337092   1.000000
      6         -2.010008   1.000000
      7          4.944235   0.000000
      8          7.488625   0.000000
      9          8.247804   0.000000
     10         15.034383   0.000000
 
  0.3750000E+00  0.2083333E+00  0.2083333E+00  0.1388889E-01
      1         -2.892023   1.000000
      2         -2.674282   1.000000
      3         -2.600133   1.000000
      4         -2.503470   1.000000
      5         -2.312253   1.000000
      6         -1.302597   1.000000
      7          3.093672   0.000000
      8          8.293114   0.000000
      9          9.115994   0.000000
     10         13.262414   0.000000
 
  0.4583333E+00  0.2083333E+00  0.2083333E+00  0.1388889E-01
      1         -2.769065   1.000000
      2         -2.650230   1.000000
      3         -2.646179   1.000000
      4         -2.555575   1.000000
      5         -2.299418   1.000000
      6         -0.261815   0.000000
      7          1.531874   0.000000
      8          8.999103   0.000000
      9         10.179657   0.000000
     10         11.740999   0.000000
 
  0.2916667E+00  0.2916667E+00  0.2083333E+00  0.1388889E-01
      1         -2.925530   1.000000
      2         -2.658808   1.000000
      3         -2.524373   1.000000
      4         -2.451723   1.000000
      5         -2.369263   1.000000
      6         -1.590797   1.000000
      7          5.221489   0.000000
      8          6.088997   0.000000
      9          8.612572   0.000000
     10         13.174001   0.000000
 
  0.3750000E+00  0.2916667E+00  0.2083333E+00  0.2777778E-01
      1         -2.848586   1.000000
      2         -2.654454   1.000000
      3         -2.524637   1.000000
      4         -2.479670   1.000000
      5         -2.303744   1.000000
      6         -0.764690   0.000000
      7          3.702364   0.000000
      8          6.583958   0.000000
      9          9.395472   0.000000
     10         11.530151   0.000000
 
  0.4583333E+00  0.2916667E+00  0.2083333E+00  0.2777778E-01
      1         -2.834776   1.000000
      2         -2.631373   1.000000
      3         -2.573151   1.000000
      4         -2.476627   1.000000
      5         -2.264044   1.000000
      6          0.283693   0.000000
      7          2.188974   0.000000
      8          7.337805   0.000000
      9          9.849542   0.000000
     10         10.721001   0.000000
 
  0.3750000E+00  0.3750000E+00  0.2083333E+00  0.1388889E-01
      1         -2.886409   1.000000
      2         -2.636365   1.000000
      3         -2.523429   1.000000
      4         -2.498320   1.000000
      5         -2.164850   1.000000
      6          0.072870   0.000000
      7          4.050566   0.000000
      8          5.196531   0.000000
      9          9.388239   0.000000
     10         10.713852   0.000000
 
  0.4583333E+00  0.3750000E+00  0.2083333E+00  0.2777778E-01
      1         -2.918963   1.000000
      2         -2.606014   1.000000
      3         -2.561357   1.000000
      4         -2.498978   1.000000
      5         -2.084399   1.000000
      6          1.104063   0.000000
      7          2.938923   0.000000
      8          5.514973   0.000000
      9          8.411077   0.000000
     10         11.420495   0.000000
 
  0.4583333E+00  0.4583333E+00  0.2083333E+00  0.1388889E-01
      1         -2.967745   1.000000
      2         -2.580315   1.000000
      3         -2.557171   1.000000
      4         -2.533674   1.000000
      5         -1.976507   1.000000
      6          2.162796   0.000000
      7          3.406677   0.000000
      8          4.105693   0.000000
      9          7.371775   0.000000
     10         12.328271   0.000000
 
  0.2916667E+00  0.2916667E+00  0.2916667E+00  0.4629630E-02
      1         -2.838493   1.000000
      2         -2.578374   1.000000
      3         -2.578374   1.000000
      4         -2.394705   1.000000
      5         -2.394705   1.000000
      6         -1.025220   0.216425
      7          5.902117   0.000000
      8          5.902117   0.000000
      9          7.370451   0.000000
     10         13.676066   0.000000
 
  0.3750000E+00  0.2916667E+00  0.2916667E+00  0.1388889E-01
      1         -2.823315   1.000000
      2         -2.639677   1.000000
      3         -2.583015   1.000000
      4         -2.398288   1.000000
      5         -2.269276   1.000000
      6         -0.156594   0.000000
      7          4.333522   0.000000
      8          6.688793   0.000000
      9          7.946798   0.000000
     10         11.954054   0.000000
 
  0.4583333E+00  0.2916667E+00  0.2916667E+00  0.1388889E-01
      1         -2.828362   1.000000
      2         -2.677077   1.000000
      3         -2.582473   1.000000
      4         -2.396774   1.000000
      5         -2.204611   1.000000
      6          0.879092   0.000000
      7          2.853478   0.000000
      8          7.344187   0.000000
      9          8.980435   0.000000
     10         10.408177   0.000000
 
  0.3750000E+00  0.3750000E+00  0.2916667E+00  0.1388889E-01
      1         -2.846325   1.000000
      2         -2.670454   1.000000
      3         -2.638540   1.000000
      4         -2.334938   1.000000
      5         -2.152325   1.000000
      6          0.706764   0.000000
      7          4.739875   0.000000
      8          5.649717   0.000000
      9          8.312335   0.000000
     10         10.510963   0.000000
 
  0.4583333E+00  0.3750000E+00  0.2916667E+00  0.2777778E-01
      1         -2.874949   1.000000
      2         -2.696239   1.000000
      3         -2.647577   1.000000
      4         -2.321951   1.000000
      5         -2.068530   1.000000
      6          1.726571   0.000000
      7          3.613745   0.000000
      8          6.017780   0.000000
      9          8.786930   0.000000
     10          9.686021   0.000000
 
  0.4583333E+00  0.4583333E+00  0.2916667E+00  0.1388889E-01
      1         -2.917167   1.000000
      2         -2.689759   1.000000
      3         -2.684209   1.000000
      4         -2.303007   1.000000
      5         -1.971164   1.000000
      6          2.779776   0.000000
      7          4.106233   0.000000
      8          4.684711   0.000000
      9          7.927851   0.000000
     10         10.313105   0.000000
 
  0.3750000E+00  0.3750000E+00  0.3750000E+00  0.4629630E-02
      1         -2.833165   1.000000
      2         -2.729829   1.000000
      3         -2.729829   1.000000
      4         -2.143524   1.000000
      5         -2.143524   1.000000
      6          1.569429   0.000000
      7          5.514149   0.000000
      8          5.514149   0.000000
      9          7.517033   0.000000
     10         10.886451   0.000000
 
  0.4583333E+00  0.3750000E+00  0.3750000E+00  0.1388889E-01
      1         -2.850962   1.000000
      2         -2.779738   1.000000
      3         -2.737194   1.000000
      4         -2.138846   1.000000
      5         -2.037353   1.000000
      6          2.574359   0.000000
      7          4.377503   0.000000
      8          6.131143   0.000000
      9          8.190713   0.000000
     10          9.554410   0.000000
 
  0.4583333E+00  0.4583333E+00  0.3750000E+00  0.1388889E-01
      1         -2.873533   1.000000
      2         -2.789772   1.000000
      3         -2.784986   1.000000
      4         -2.088085   1.000000
      5         -1.967035   1.000000
      6          3.596049   0.000000
      7          4.876668   0.000000
      8          5.313856   0.000000
      9          8.413356   0.000000
     10          8.856176   0.000000
 
  0.4583333E+00  0.4583333E+00  0.4583333E+00  0.4629630E-02
      1         -2.852821   1.000000
      2         -2.839972   1.000000
      3         -2.839972   1.000000
      4         -1.964848   1.000000
      5         -1.964848   1.000000
      6          4.555127   0.000000
      7          5.474670   0.000000
      8          5.474670   0.000000
      9          7.587654   0.000000
     10          9.326038   0.000000
