       N       E                     dE             d eps       ncg     rms          rms(c)
DAV:   1    -0.564677980805E+03   -0.56468E+03   -0.12693E+04  1126   0.189E+03
DAV:   2    -0.600466126529E+03   -0.35788E+02   -0.35506E+02  1420   0.261E+02
DAV:   3    -0.601098995745E+03   -0.63287E+00   -0.62108E+00  1260   0.305E+01
DAV:   4    -0.601136522493E+03   -0.37527E-01   -0.37525E-01  1156   0.909E+00
DAV:   5    -0.601143016456E+03   -0.64940E-02   -0.64940E-02  1716   0.347E+00    0.791E+01
DAV:   6    -0.146253977174E+03    0.45489E+03   -0.15788E+02  1142   0.139E+02    0.411E+01
DAV:   7    -0.866538115513E+02    0.59600E+02   -0.14069E+03  1134   0.278E+02    0.685E+01
DAV:   8    -0.203986952654E+03   -0.11733E+03   -0.47326E+03  1124   0.113E+03    0.483E+01
DAV:   9    -0.856190204313E+02    0.11837E+03   -0.98016E+01  1252   0.110E+02    0.353E+01
DAV:  10    -0.333187808361E+02    0.52300E+02   -0.40376E+01  1192   0.757E+01    0.245E+01
DAV:  11    -0.289903032532E+02    0.43285E+01   -0.22165E+00  1176   0.148E+01    0.229E+01
DAV:  12    -0.149050972048E+02    0.14085E+02   -0.66080E+00  1196   0.330E+01    0.166E+01
DAV:  13    -0.778467251422E+01    0.71204E+01   -0.14498E+02  1238   0.121E+02    0.208E+01
DAV:  14    -0.568148992567E+01    0.21032E+01   -0.27380E+00  1272   0.180E+01    0.160E+01
DAV:  15    -0.145260136015E+02   -0.88445E+01   -0.21759E+01  1226   0.513E+01    0.314E+01
DAV:  16    -0.524455110500E+01    0.92815E+01   -0.22099E+01  1222   0.604E+01    0.148E+01
DAV:  17    -0.271886720392E+01    0.25257E+01   -0.48476E+01  1230   0.870E+01    0.449E+00
DAV:  18    -0.697272955644E+01   -0.42539E+01   -0.11804E+01  1230   0.551E+01    0.113E+01
DAV:  19    -0.471189339310E+01    0.22608E+01   -0.17427E+00  1224   0.201E+01    0.855E+00
DAV:  20    -0.320072596173E+01    0.15112E+01   -0.16827E+00  1242   0.181E+01    0.562E+00
DAV:  21    -0.279003126815E+01    0.41069E+00   -0.32441E-01  1252   0.816E+00    0.433E+00
DAV:  22    -0.265990346687E+01    0.13013E+00   -0.52624E-02  1234   0.316E+00    0.380E+00
DAV:  23    -0.248301357366E+01    0.17689E+00   -0.14625E-01  1238   0.526E+00    0.283E+00
DAV:  24    -0.233240266073E+01    0.15061E+00   -0.31534E-01  1242   0.756E+00    0.139E+00
DAV:  25    -0.230226180428E+01    0.30141E-01   -0.56469E-02  1268   0.295E+00    0.791E-01
DAV:  26    -0.229711480027E+01    0.51470E-02   -0.34127E-03  1338   0.631E-01    0.633E-01
DAV:  27    -0.228887844966E+01    0.82364E-02   -0.34495E-02  1234   0.233E+00    0.141E-01
DAV:  28    -0.228889185419E+01   -0.13405E-04   -0.12430E-02  1250   0.140E+00    0.149E-01
DAV:  29    -0.228864056544E+01    0.25129E-03   -0.44043E-04   716   0.268E-01    0.951E-02
DAV:  30    -0.228846322626E+01    0.17734E-03   -0.18223E-03  1038   0.535E-01    0.168E-02
DAV:  31    -0.228845762934E+01    0.55969E-05   -0.30289E-05   570   0.728E-02
   1 F= -.22884576E+01 E0= -.22880057E+01  d E =-.903935E-03
