<?xml version="1.0" encoding="ISO-8859-1"?>
<modeling>
 <generator>
  <i name="program" type="string">vasp </i>
  <i name="version" type="string">6.3.0  </i>
  <i name="subversion" type="string">20Jan22 (build Sep 29 2023 15:57:01) complex                          parallel </i>
  <i name="platform" type="string">LinuxIFC </i>
  <i name="date" type="string">2023 11 06 </i>
  <i name="time" type="string">15:29:00 </i>
 </generator>
 <incar>
  <i type="string" name="SYSTEM">sc Cu</i>
  <i type="int" name="ISTART">     0</i>
  <i type="int" name="ICHARG">     0</i>
  <i name="ENCUT">    292.00000000</i>
  <i type="int" name="ISMEAR">     0</i>
  <i name="SIGMA">      0.05000000</i>
 </incar>
 <primitive_cell>
  <structure name="primitive_cell" >
   <crystal>
    <varray name="basis" >
     <v>       3.00000000       0.00000000       0.00000000 </v>
     <v>       0.00000000       3.00000000       0.00000000 </v>
     <v>       0.00000000       0.00000000       3.00000000 </v>
    </varray>
    <i name="volume">     27.00000000 </i>
    <varray name="rec_basis" >
     <v>       0.33333333       0.00000000       0.00000000 </v>
     <v>       0.00000000       0.33333333       0.00000000 </v>
     <v>       0.00000000       0.00000000       0.33333333 </v>
    </varray>
   </crystal>
   <varray name="positions" >
    <v>       0.00000000       0.00000000       0.00000000 </v>
   </varray>
  </structure>
  <varray name="primitive_index" >
   <v type="int" >        1 </v>
  </varray>
 </primitive_cell>
 <kpoints>
  <generation param="Monkhorst-Pack">
   <v type="int" name="divisions">      12       12       12 </v>
   <v name="usershift">      0.00000000       0.00000000       0.00000000 </v>
   <v name="genvec1">      0.08333333       0.00000000       0.00000000 </v>
   <v name="genvec2">      0.00000000       0.08333333       0.00000000 </v>
   <v name="genvec3">      0.00000000       0.00000000       0.08333333 </v>
   <v name="shift">      0.50000000       0.50000000       0.50000000 </v>
  </generation>
  <varray name="kpointlist" >
   <v>       0.04166667       0.04166667       0.04166667 </v>
   <v>       0.12500000       0.04166667       0.04166667 </v>
   <v>       0.20833333       0.04166667       0.04166667 </v>
   <v>       0.29166667       0.04166667       0.04166667 </v>
   <v>       0.37500000       0.04166667       0.04166667 </v>
   <v>       0.45833333       0.04166667       0.04166667 </v>
   <v>       0.12500000       0.12500000       0.04166667 </v>
   <v>       0.20833333       0.12500000       0.04166667 </v>
   <v>       0.29166667       0.12500000       0.04166667 </v>
   <v>       0.37500000       0.12500000       0.04166667 </v>
   <v>       0.45833333       0.12500000       0.04166667 </v>
   <v>       0.20833333       0.20833333       0.04166667 </v>
   <v>       0.29166667       0.20833333       0.04166667 </v>
   <v>       0.37500000       0.20833333       0.04166667 </v>
   <v>       0.45833333       0.20833333       0.04166667 </v>
   <v>       0.29166667       0.29166667       0.04166667 </v>
   <v>       0.37500000       0.29166667       0.04166667 </v>
   <v>       0.45833333       0.29166667       0.04166667 </v>
   <v>       0.37500000       0.37500000       0.04166667 </v>
   <v>       0.45833333       0.37500000       0.04166667 </v>
   <v>       0.45833333       0.45833333       0.04166667 </v>
   <v>       0.12500000       0.12500000       0.12500000 </v>
   <v>       0.20833333       0.12500000       0.12500000 </v>
   <v>       0.29166667       0.12500000       0.12500000 </v>
   <v>       0.37500000       0.12500000       0.12500000 </v>
   <v>       0.45833333       0.12500000       0.12500000 </v>
   <v>       0.20833333       0.20833333       0.12500000 </v>
   <v>       0.29166667       0.20833333       0.12500000 </v>
   <v>       0.37500000       0.20833333       0.12500000 </v>
   <v>       0.45833333       0.20833333       0.12500000 </v>
   <v>       0.29166667       0.29166667       0.12500000 </v>
   <v>       0.37500000       0.29166667       0.12500000 </v>
   <v>       0.45833333       0.29166667       0.12500000 </v>
   <v>       0.37500000       0.37500000       0.12500000 </v>
   <v>       0.45833333       0.37500000       0.12500000 </v>
   <v>       0.45833333       0.45833333       0.12500000 </v>
   <v>       0.20833333       0.20833333       0.20833333 </v>
   <v>       0.29166667       0.20833333       0.20833333 </v>
   <v>       0.37500000       0.20833333       0.20833333 </v>
   <v>       0.45833333       0.20833333       0.20833333 </v>
   <v>       0.29166667       0.29166667       0.20833333 </v>
   <v>       0.37500000       0.29166667       0.20833333 </v>
   <v>       0.45833333       0.29166667       0.20833333 </v>
   <v>       0.37500000       0.37500000       0.20833333 </v>
   <v>       0.45833333       0.37500000       0.20833333 </v>
   <v>       0.45833333       0.45833333       0.20833333 </v>
   <v>       0.29166667       0.29166667       0.29166667 </v>
   <v>       0.37500000       0.29166667       0.29166667 </v>
   <v>       0.45833333       0.29166667       0.29166667 </v>
   <v>       0.37500000       0.37500000       0.29166667 </v>
   <v>       0.45833333       0.37500000       0.29166667 </v>
   <v>       0.45833333       0.45833333       0.29166667 </v>
   <v>       0.37500000       0.37500000       0.37500000 </v>
   <v>       0.45833333       0.37500000       0.37500000 </v>
   <v>       0.45833333       0.45833333       0.37500000 </v>
   <v>       0.45833333       0.45833333       0.45833333 </v>
  </varray>
  <varray name="weights" >
   <v>       0.00462963 </v>
   <v>       0.01388889 </v>
   <v>       0.01388889 </v>
   <v>       0.01388889 </v>
   <v>       0.01388889 </v>
   <v>       0.01388889 </v>
   <v>       0.01388889 </v>
   <v>       0.02777778 </v>
   <v>       0.02777778 </v>
   <v>       0.02777778 </v>
   <v>       0.02777778 </v>
   <v>       0.01388889 </v>
   <v>       0.02777778 </v>
   <v>       0.02777778 </v>
   <v>       0.02777778 </v>
   <v>       0.01388889 </v>
   <v>       0.02777778 </v>
   <v>       0.02777778 </v>
   <v>       0.01388889 </v>
   <v>       0.02777778 </v>
   <v>       0.01388889 </v>
   <v>       0.00462963 </v>
   <v>       0.01388889 </v>
   <v>       0.01388889 </v>
   <v>       0.01388889 </v>
   <v>       0.01388889 </v>
   <v>       0.01388889 </v>
   <v>       0.02777778 </v>
   <v>       0.02777778 </v>
   <v>       0.02777778 </v>
   <v>       0.01388889 </v>
   <v>       0.02777778 </v>
   <v>       0.02777778 </v>
   <v>       0.01388889 </v>
   <v>       0.02777778 </v>
   <v>       0.01388889 </v>
   <v>       0.00462963 </v>
   <v>       0.01388889 </v>
   <v>       0.01388889 </v>
   <v>       0.01388889 </v>
   <v>       0.01388889 </v>
   <v>       0.02777778 </v>
   <v>       0.02777778 </v>
   <v>       0.01388889 </v>
   <v>       0.02777778 </v>
   <v>       0.01388889 </v>
   <v>       0.00462963 </v>
   <v>       0.01388889 </v>
   <v>       0.01388889 </v>
   <v>       0.01388889 </v>
   <v>       0.02777778 </v>
   <v>       0.01388889 </v>
   <v>       0.00462963 </v>
   <v>       0.01388889 </v>
   <v>       0.01388889 </v>
   <v>       0.00462963 </v>
  </varray>
 </kpoints>
 <parameters>
  <separator name="general" >
   <i type="string" name="SYSTEM">sc Cu</i>
   <i type="logical" name="LCOMPAT"> F  </i>
  </separator>
  <separator name="electronic" >
   <i type="string" name="PREC">normal</i>
   <i name="ENMAX">    292.00000000</i>
   <i name="ENAUG">    516.45600000</i>
   <i name="EDIFF">      0.00010000</i>
   <i type="int" name="IALGO">    38</i>
   <i type="int" name="IWAVPR">    10</i>
   <i type="int" name="NBANDS">    10</i>
   <i type="int" name="NBANDSLOW">    -1</i>
   <i type="int" name="NBANDSHIGH">    -1</i>
   <i name="NELECT">     11.00000000</i>
   <i type="int" name="TURBO">     0</i>
   <i type="int" name="IRESTART">     0</i>
   <i type="int" name="NREBOOT">     0</i>
   <i type="int" name="NMIN">     0</i>
   <i name="EREF">      0.00000000</i>
   <separator name="electronic smearing" >
    <i type="int" name="ISMEAR">     0</i>
    <i name="SIGMA">      0.05000000</i>
    <i name="KSPACING">      0.50000000</i>
    <i type="logical" name="KGAMMA"> T  </i>
    <i type="logical" name="KBLOWUP"> T  </i>
   </separator>
   <separator name="electronic projectors" >
    <i type="logical" name="LREAL"> F  </i>
    <v name="ROPT">      0.00000000</v>
    <i type="int" name="LMAXPAW">  -100</i>
    <i type="int" name="LMAXMIX">     2</i>
    <i type="logical" name="NLSPLINE"> F  </i>
   </separator>
   <separator name="electronic startup" >
    <i type="int" name="ISTART">     0</i>
    <i type="int" name="ICHARG">     0</i>
    <i type="int" name="INIWAV">     1</i>
   </separator>
   <separator name="electronic spin" >
    <i type="int" name="ISPIN">     1</i>
    <i type="logical" name="LNONCOLLINEAR"> F  </i>
    <v name="MAGMOM">      1.00000000</v>
    <i name="NUPDOWN">     -1.00000000</i>
    <i type="logical" name="LSORBIT"> F  </i>
    <v name="SAXIS">      0.00000000      0.00000000      1.00000000</v>
    <i type="logical" name="LSPIRAL"> F  </i>
    <v name="QSPIRAL">      0.00000000      0.00000000      0.00000000</v>
    <i type="logical" name="LZEROZ"> F  </i>
   </separator>
   <separator name="electronic exchange-correlation" >
    <i type="logical" name="LASPH"> F  </i>
    <i type="logical" name="LMETAGGA"> F  </i>
   </separator>
   <separator name="electronic convergence" >
    <i type="int" name="NELM">    60</i>
    <i type="int" name="NELMDL">    -5</i>
    <i type="int" name="NELMIN">     2</i>
    <i name="ENINI">    292.00000000</i>
    <separator name="electronic convergence detail" >
     <i type="logical" name="LDIAG"> T  </i>
     <i type="logical" name="LSUBROT"> F  </i>
     <i name="WEIMIN">      0.00000000</i>
     <i name="EBREAK">      0.00000250</i>
     <i name="DEPER">      0.30000000</i>
     <i type="int" name="NRMM">     4</i>
     <i name="TIME">      0.40000000</i>
    </separator>
   </separator>
   <separator name="electronic mixer" >
    <i name="AMIX">      0.40000000</i>
    <i name="BMIX">      1.00000000</i>
    <i name="AMIN">      0.10000000</i>
    <i name="AMIX_MAG">      1.60000000</i>
    <i name="BMIX_MAG">      1.00000000</i>
    <separator name="electronic mixer details" >
     <i type="int" name="IMIX">     4</i>
     <i type="logical" name="MIXFIRST"> F  </i>
     <i type="int" name="MAXMIX">   -45</i>
     <i name="WC">    100.00000000</i>
     <i type="int" name="INIMIX">     1</i>
     <i type="int" name="MIXPRE">     1</i>
     <i type="int" name="MREMOVE">     5</i>
    </separator>
   </separator>
   <separator name="electronic dipolcorrection" >
    <i type="logical" name="LDIPOL"> F  </i>
    <i type="logical" name="LMONO"> F  </i>
    <i type="int" name="IDIPOL">     0</i>
    <i name="EPSILON">      1.00000000</i>
    <v name="DIPOL">   -100.00000000   -100.00000000   -100.00000000</v>
    <i name="EFIELD">      0.00000000</i>
   </separator>
  </separator>
  <separator name="grids" >
   <i type="int" name="NGX">    14</i>
   <i type="int" name="NGY">    14</i>
   <i type="int" name="NGZ">    14</i>
   <i type="int" name="NGXF">    28</i>
   <i type="int" name="NGYF">    28</i>
   <i type="int" name="NGZF">    28</i>
   <i type="logical" name="ADDGRID"> F  </i>
  </separator>
  <separator name="ionic" >
   <i type="int" name="NSW">     0</i>
   <i type="int" name="IBRION">    -1</i>
   <i type="int" name="MDALGO">     0</i>
   <i type="int" name="ISIF">     2</i>
   <i name="PSTRESS">      0.00000000</i>
   <i name="EDIFFG">      0.00100000</i>
   <i type="int" name="NFREE">     0</i>
   <i name="POTIM">      0.50000000</i>
   <i name="SMASS">     -3.00000000</i>
   <i name="SCALEE">      1.00000000</i>
  </separator>
  <separator name="ionic md" >
   <i name="TEBEG">      0.00010000</i>
   <i name="TEEND">      0.00010000</i>
   <i type="int" name="NBLOCK">     1</i>
   <i type="int" name="KBLOCK">     1</i>
   <i type="int" name="NPACO">   256</i>
   <i name="APACO">     10.00000000</i>
  </separator>
  <separator name="symmetry" >
   <i type="int" name="ISYM">     2</i>
   <i name="SYMPREC">      0.00001000</i>
  </separator>
  <separator name="dos" >
   <i type="int" name="LORBIT">     0</i>
   <v name="RWIGS">     -1.00000000</v>
   <i type="int" name="NEDOS">   301</i>
   <i name="EMIN">     10.00000000</i>
   <i name="EMAX">    -10.00000000</i>
   <i name="EFERMI">      0.00000000</i>
  </separator>
  <separator name="writing" >
   <i type="int" name="NWRITE">     2</i>
   <i type="logical" name="LWAVE"> T  </i>
   <i type="logical" name="LDOWNSAMPLE"> F  </i>
   <i type="logical" name="LCHARG"> T  </i>
   <i type="logical" name="LPARD"> F  </i>
   <i type="logical" name="LVTOT"> F  </i>
   <i type="logical" name="LVHAR"> F  </i>
   <i type="logical" name="LELF"> F  </i>
   <i type="logical" name="LOPTICS"> F  </i>
   <v name="STM">      0.00000000      0.00000000      0.00000000      0.00000000      0.00000000      0.00000000      0.00000000</v>
  </separator>
  <separator name="performance" >
   <i type="int" name="NPAR">     2</i>
   <i type="int" name="NSIM">     4</i>
   <i type="int" name="NBLK">    -1</i>
   <i type="logical" name="LPLANE"> T  </i>
   <i type="logical" name="LSCALAPACK"> T  </i>
   <i type="logical" name="LSCAAWARE"> F  </i>
   <i type="logical" name="LSCALU"> F  </i>
   <i type="logical" name="LASYNC"> F  </i>
   <i type="logical" name="LORBITALREAL"> F  </i>
  </separator>
  <separator name="miscellaneous" >
   <i type="int" name="IDIOT">     3</i>
   <i type="int" name="PHON_NSTRUCT">    -1</i>
   <i type="logical" name="LMUSIC"> F  </i>
   <v name="POMASS">     63.54600000</v>
   <v name="DARWINR">      0.00000000</v>
   <v name="DARWINV">      1.00000000</v>
   <i type="logical" name="LCORR"> T  </i>
  </separator>
  <i type="logical" name="GGA_COMPAT"> T  </i>
  <i type="logical" name="LBERRY"> F  </i>
  <i type="int" name="ICORELEVEL">     0</i>
  <i type="logical" name="LDAU"> F  </i>
  <i type="int" name="I_CONSTRAINED_M">     0</i>
  <separator name="electronic exchange-correlation" >
   <i type="string" name="GGA">--</i>
   <i type="int" name="VOSKOWN">     0</i>
   <i type="logical" name="LHFCALC"> F  </i>
   <i type="string" name="PRECFOCK"></i>
   <i type="logical" name="LSYMGRAD"> F  </i>
   <i type="logical" name="LHFONE"> F  </i>
   <i type="logical" name="LRHFCALC"> F  </i>
   <i type="logical" name="LTHOMAS"> F  </i>
   <i type="logical" name="LMODELHF"> F  </i>
   <i type="logical" name="LFOCKACE"> F  </i>
   <i name="ENCUT4O">     -1.00000000</i>
   <i type="int" name="EXXOEP">     0</i>
   <i type="int" name="FOURORBIT">     0</i>
   <i name="AEXX">      0.00000000</i>
   <i name="HFALPHA">      0.00000000</i>
   <i name="MCALPHA">      0.00000000</i>
   <i name="ALDAX">      1.00000000</i>
   <i name="AGGAX">      1.00000000</i>
   <i name="ALDAC">      1.00000000</i>
   <i name="AGGAC">      1.00000000</i>
   <i type="int" name="NKREDX">     1</i>
   <i type="int" name="NKREDY">     1</i>
   <i type="int" name="NKREDZ">     1</i>
   <i type="logical" name="SHIFTRED"> F  </i>
   <i type="logical" name="ODDONLY"> F  </i>
   <i type="logical" name="EVENONLY"> F  </i>
   <i type="int" name="LMAXFOCK">     0</i>
   <i type="int" name="NMAXFOCKAE">     0</i>
   <i type="logical" name="LFOCKAEDFT"> F  </i>
   <i name="HFSCREEN">      0.00000000</i>
   <i name="HFSCREENC">      0.00000000</i>
   <i type="int" name="NBANDSGWLOW">     0</i>
  </separator>
  <separator name="vdW DFT" >
   <i type="logical" name="LUSE_VDW"> F  </i>
   <i name="Zab_VDW">     -0.84910000</i>
   <i name="PARAM1">      0.12340000</i>
   <i name="PARAM2">      1.00000000</i>
   <i name="PARAM3">      0.00000000</i>
  </separator>
  <separator name="model GW" >
   <i type="int" name="MODEL_GW">     0</i>
   <i name="MODEL_EPS0">     16.20000000</i>
   <i name="MODEL_ALPHA">      1.00000000</i>
  </separator>
  <separator name="linear response parameters" >
   <i type="logical" name="LEPSILON"> F  </i>
   <i type="logical" name="LRPA"> F  </i>
   <i type="logical" name="LNABLA"> F  </i>
   <i type="logical" name="LVEL"> F  </i>
   <i name="CSHIFT">      0.10000000</i>
   <i name="OMEGAMAX">     -1.00000000</i>
   <i name="DEG_THRESHOLD">      0.00200000</i>
   <i name="RTIME">     -0.10000000</i>
   <i name="WPLASMAI">      0.00000000</i>
   <v name="DFIELD">      0.00000000      0.00000000      0.00000000</v>
   <v name="WPLASMA">      0.00000000      0.00000000      0.00000000      0.00000000      0.00000000      0.00000000      0.00000000      0.00000000      0.00000000</v>
  </separator>
  <separator name="orbital magnetization" >
   <i type="logical" name="NUCIND"> F  </i>
   <v name="MAGPOS">      0.00000000      0.00000000      0.00000000</v>
   <i type="logical" name="LNICSALL"> T  </i>
   <i type="logical" name="ORBITALMAG"> F  </i>
   <i type="logical" name="LMAGBLOCH"> F  </i>
   <i type="logical" name="LCHIMAG"> F  </i>
   <i type="logical" name="LGAUGE"> T  </i>
   <i type="int" name="MAGATOM">     0</i>
   <v name="MAGDIPOL">      0.00000000      0.00000000      0.00000000</v>
   <v name="AVECCONST">      0.00000000      0.00000000      0.00000000</v>
  </separator>
  <separator name="response functions" >
   <i type="logical" name="LFINITE_TEMPERATURE"> F  </i>
   <i type="logical" name="LADDER"> F  </i>
   <i type="logical" name="LRPAFORCE"> F  </i>
   <i type="logical" name="LFXC"> F  </i>
   <i type="logical" name="LHARTREE"> T  </i>
   <i type="int" name="IBSE">     0</i>
   <v type="int" name="KPOINT">    -1     0     0     0</v>
   <i type="logical" name="LTCTC"> F  </i>
   <i type="logical" name="LTCTE"> F  </i>
   <i type="logical" name="LTETE"> F  </i>
   <i type="logical" name="LTRIPLET"> F  </i>
   <i type="logical" name="LFXCEPS"> F  </i>
   <i type="logical" name="LFXHEG"> F  </i>
   <i type="int" name="NATURALO">     2</i>
   <i type="logical" name="LHOLEGF"> F  </i>
   <i type="logical" name="L2ORDER"> F  </i>
   <i type="logical" name="LDMP1"> F  </i>
   <i type="logical" name="LMP2LT"> F  </i>
   <i type="logical" name="LSMP2LT"> F  </i>
   <i type="logical" name="LGWLF"> F  </i>
   <i name="ENCUTGW">     -2.00000000</i>
   <i name="ENCUTGWSOFT">     -2.00000000</i>
   <i name="ENCUTLF">     -1.00000000</i>
   <i type="logical" name="LESF_SPLINES"> F  </i>
   <i type="int" name="LMAXMP2">    -1</i>
   <i name="SCISSOR">      0.00000000</i>
   <i type="int" name="NOMEGA">     0</i>
   <i type="int" name="NOMEGAR">     0</i>
   <i type="int" name="NBANDSGW">    -1</i>
   <i type="int" name="NBANDSO">    -1</i>
   <i type="int" name="NBANDSV">    -1</i>
   <i type="int" name="NELMGW">     1</i>
   <i type="int" name="NELMHF">     1</i>
   <i type="int" name="DIM">     3</i>
   <i type="int" name="IESPILON">     4</i>
   <i type="int" name="ANTIRES">     0</i>
   <i name="OMEGAMAX">    -30.00000000</i>
   <i name="OMEGAMIN">    -30.00000000</i>
   <i name="OMEGATL">   -200.00000000</i>
   <i type="int" name="OMEGAGRID">     0</i>
   <i name="CSHIFT">     -0.10000000</i>
   <i type="logical" name="LSELFENERGY"> F  </i>
   <i type="logical" name="LSPECTRAL"> F  </i>
   <i type="logical" name="LSPECTRALGW"> F  </i>
   <i type="logical" name="LSINGLES"> F  </i>
   <i type="logical" name="LFERMIGW"> F  </i>
   <i type="logical" name="ODDONLYGW"> F  </i>
   <i type="logical" name="EVENONLYGW"> F  </i>
   <i type="int" name="NKREDLFX">     1</i>
   <i type="int" name="NKREDLFY">     1</i>
   <i type="int" name="NKREDLFZ">     1</i>
   <i type="int" name="MAXMEM">  2800</i>
   <i type="int" name="TELESCOPE">     0</i>
   <i type="int" name="NTAUPAR">    -1</i>
   <i type="int" name="NOMEGAPAR">    -1</i>
   <i name="DAMP_NEWTON">      0.80000001</i>
   <i name="LAMBDA">      1.00000000</i>
  </separator>
  <separator name="External order field" >
   <i name="OFIELD_KAPPA">      0.00000000</i>
   <v name="OFIELD_K">      0.00000000      0.00000000      0.00000000</v>
   <i name="OFIELD_Q6_NEAR">      0.00000000</i>
   <i name="OFIELD_Q6_FAR">      0.00000000</i>
   <i name="OFIELD_A">      0.00000000</i>
  </separator>
  <separator name="optional k-points parameters" >
   <i type="int" name="KPOINTS_OPT_MODE">     1</i>
   <i type="logical" name="LKPOINTS_OPT"> F  </i>
  </separator>
 </parameters>
 <atominfo>
  <atoms>       1 </atoms>
  <types>       1 </types>
  <array name="atoms" >
   <dimension dim="1">ion</dimension>
   <field type="string">element</field>
   <field type="int">atomtype</field>
   <set>
    <rc><c>Cu</c><c>   1</c></rc>
   </set>
  </array>
  <array name="atomtypes" >
   <dimension dim="1">type</dimension>
   <field type="int">atomspertype</field>
   <field type="string">element</field>
   <field>mass</field>
   <field>valence</field>
   <field type="string">pseudopotential</field>
   <set>
    <rc><c>   1</c><c>Cu</c><c>     63.54600000</c><c>     11.00000000</c><c> PAW_GGA Cu 05Jan2001                   </c></rc>
   </set>
  </array>
 </atominfo>
 <structure name="initialpos" >
  <crystal>
   <varray name="basis" >
    <v>       3.00000000       0.00000000       0.00000000 </v>
    <v>       0.00000000       3.00000000       0.00000000 </v>
    <v>       0.00000000       0.00000000       3.00000000 </v>
   </varray>
   <i name="volume">     27.00000000 </i>
   <varray name="rec_basis" >
    <v>       0.33333333       0.00000000       0.00000000 </v>
    <v>       0.00000000       0.33333333       0.00000000 </v>
    <v>       0.00000000       0.00000000       0.33333333 </v>
   </varray>
  </crystal>
  <varray name="positions" >
   <v>       0.00000000       0.00000000       0.00000000 </v>
  </varray>
 </structure>
 <calculation>
  <scstep>
   <time name="dav">    0.07    0.07</time>
   <time name="total">    0.07    0.08</time>
   <energy>
    <i name="alphaZ">     47.11303667 </i>
    <i name="ewald">   -823.93901355 </i>
    <i name="hartreedc">    -31.58722932 </i>
    <i name="XCdc">     20.92958171 </i>
    <i name="pawpsdc">    166.14030040 </i>
    <i name="pawaedc">   -165.09834548 </i>
    <i name="eentropy">     -0.00114111 </i>
    <i name="bandstr">  -1171.27345855 </i>
    <i name="atom">   1393.03828842 </i>
    <i name="e_fr_energy">   -564.67798081 </i>
    <i name="e_wo_entrp">   -564.67683970 </i>
    <i name="e_0_energy">   -564.67741025 </i>
   </energy>
  </scstep>
  <scstep>
   <time name="dav">    0.08    0.08</time>
   <time name="total">    0.08    0.08</time>
   <energy>
    <i name="e_fr_energy">   -600.46612653 </i>
    <i name="e_wo_entrp">   -600.45239737 </i>
    <i name="e_0_energy">   -600.45926195 </i>
   </energy>
  </scstep>
  <scstep>
   <time name="dav">    0.06    0.07</time>
   <time name="total">    0.06    0.07</time>
   <energy>
    <i name="e_fr_energy">   -601.09899574 </i>
    <i name="e_wo_entrp">   -601.07661647 </i>
    <i name="e_0_energy">   -601.08780611 </i>
   </energy>
  </scstep>
  <scstep>
   <time name="dav">    0.06    0.06</time>
   <time name="total">    0.06    0.06</time>
   <energy>
    <i name="e_fr_energy">   -601.13652249 </i>
    <i name="e_wo_entrp">   -601.11415812 </i>
    <i name="e_0_energy">   -601.12534031 </i>
   </energy>
  </scstep>
  <scstep>
   <time name="dav">    0.09    0.09</time>
   <time name="total">    0.09    0.09</time>
   <energy>
    <i name="e_fr_energy">   -601.14301646 </i>
    <i name="e_wo_entrp">   -601.12065219 </i>
    <i name="e_0_energy">   -601.13183432 </i>
   </energy>
  </scstep>
  <scstep>
   <time name="dav">    0.06    0.06</time>
   <time name="total">    0.06    0.07</time>
   <energy>
    <i name="e_fr_energy">   -146.25397717 </i>
    <i name="e_wo_entrp">   -146.25221461 </i>
    <i name="e_0_energy">   -146.25309589 </i>
   </energy>
  </scstep>
  <scstep>
   <time name="dav">    0.06    0.06</time>
   <time name="total">    0.06    0.07</time>
   <energy>
    <i name="e_fr_energy">    -86.65381155 </i>
    <i name="e_wo_entrp">    -86.65296885 </i>
    <i name="e_0_energy">    -86.65339020 </i>
   </energy>
  </scstep>
  <scstep>
   <time name="dav">    0.06    0.06</time>
   <time name="total">    0.06    0.07</time>
   <energy>
    <i name="e_fr_energy">   -203.98695265 </i>
    <i name="e_wo_entrp">   -203.98611024 </i>
    <i name="e_0_energy">   -203.98653145 </i>
   </energy>
  </scstep>
  <scstep>
   <time name="dav">    0.06    0.06</time>
   <time name="total">    0.07    0.07</time>
   <energy>
    <i name="e_fr_energy">    -85.61902043 </i>
    <i name="e_wo_entrp">    -85.61696092 </i>
    <i name="e_0_energy">    -85.61799068 </i>
   </energy>
  </scstep>
  <scstep>
   <time name="dav">    0.06    0.06</time>
   <time name="total">    0.06    0.07</time>
   <energy>
    <i name="e_fr_energy">    -33.31878084 </i>
    <i name="e_wo_entrp">    -33.31673326 </i>
    <i name="e_0_energy">    -33.31775705 </i>
   </energy>
  </scstep>
  <scstep>
   <time name="dav">    0.06    0.06</time>
   <time name="total">    0.06    0.07</time>
   <energy>
    <i name="e_fr_energy">    -28.99030325 </i>
    <i name="e_wo_entrp">    -28.98861514 </i>
    <i name="e_0_energy">    -28.98945920 </i>
   </energy>
  </scstep>
  <scstep>
   <time name="dav">    0.06    0.06</time>
   <time name="total">    0.07    0.07</time>
   <energy>
    <i name="e_fr_energy">    -14.90509720 </i>
    <i name="e_wo_entrp">    -14.90497389 </i>
    <i name="e_0_energy">    -14.90503555 </i>
   </energy>
  </scstep>
  <scstep>
   <time name="dav">    0.06    0.07</time>
   <time name="total">    0.07    0.07</time>
   <energy>
    <i name="e_fr_energy">     -7.78467251 </i>
    <i name="e_wo_entrp">     -7.77739558 </i>
    <i name="e_0_energy">     -7.78103404 </i>
   </energy>
  </scstep>
  <scstep>
   <time name="dav">    0.06    0.07</time>
   <time name="total">    0.07    0.07</time>
   <energy>
    <i name="e_fr_energy">     -5.68148993 </i>
    <i name="e_wo_entrp">     -5.67643862 </i>
    <i name="e_0_energy">     -5.67896427 </i>
   </energy>
  </scstep>
  <scstep>
   <time name="dav">    0.06    0.06</time>
   <time name="total">    0.07    0.07</time>
   <energy>
    <i name="e_fr_energy">    -14.52601360 </i>
    <i name="e_wo_entrp">    -14.52088073 </i>
    <i name="e_0_energy">    -14.52344717 </i>
   </energy>
  </scstep>
  <scstep>
   <time name="dav">    0.06    0.06</time>
   <time name="total">    0.07    0.07</time>
   <energy>
    <i name="e_fr_energy">     -5.24455111 </i>
    <i name="e_wo_entrp">     -5.24017578 </i>
    <i name="e_0_energy">     -5.24236344 </i>
   </energy>
  </scstep>
  <scstep>
   <time name="dav">    0.06    0.06</time>
   <time name="total">    0.07    0.07</time>
   <energy>
    <i name="e_fr_energy">     -2.71886720 </i>
    <i name="e_wo_entrp">     -2.71802750 </i>
    <i name="e_0_energy">     -2.71844735 </i>
   </energy>
  </scstep>
  <scstep>
   <time name="dav">    0.06    0.06</time>
   <time name="total">    0.07    0.07</time>
   <energy>
    <i name="e_fr_energy">     -6.97272956 </i>
    <i name="e_wo_entrp">     -6.97263850 </i>
    <i name="e_0_energy">     -6.97268403 </i>
   </energy>
  </scstep>
  <scstep>
   <time name="dav">    0.07    0.07</time>
   <time name="total">    0.07    0.08</time>
   <energy>
    <i name="e_fr_energy">     -4.71189339 </i>
    <i name="e_wo_entrp">     -4.71137030 </i>
    <i name="e_0_energy">     -4.71163184 </i>
   </energy>
  </scstep>
  <scstep>
   <time name="dav">    0.06    0.06</time>
   <time name="total">    0.07    0.07</time>
   <energy>
    <i name="e_fr_energy">     -3.20072596 </i>
    <i name="e_wo_entrp">     -3.19967893 </i>
    <i name="e_0_energy">     -3.20020245 </i>
   </energy>
  </scstep>
  <scstep>
   <time name="dav">    0.06    0.06</time>
   <time name="total">    0.07    0.07</time>
   <energy>
    <i name="e_fr_energy">     -2.79003127 </i>
    <i name="e_wo_entrp">     -2.78919294 </i>
    <i name="e_0_energy">     -2.78961211 </i>
   </energy>
  </scstep>
  <scstep>
   <time name="dav">    0.06    0.06</time>
   <time name="total">    0.07    0.07</time>
   <energy>
    <i name="e_fr_energy">     -2.65990347 </i>
    <i name="e_wo_entrp">     -2.65906038 </i>
    <i name="e_0_energy">     -2.65948193 </i>
   </energy>
  </scstep>
  <scstep>
   <time name="dav">    0.06    0.06</time>
   <time name="total">    0.07    0.07</time>
   <energy>
    <i name="e_fr_energy">     -2.48301357 </i>
    <i name="e_wo_entrp">     -2.48187973 </i>
    <i name="e_0_energy">     -2.48244665 </i>
   </energy>
  </scstep>
  <scstep>
   <time name="dav">    0.06    0.06</time>
   <time name="total">    0.07    0.07</time>
   <energy>
    <i name="e_fr_energy">     -2.33240266 </i>
    <i name="e_wo_entrp">     -2.33132389 </i>
    <i name="e_0_energy">     -2.33186328 </i>
   </energy>
  </scstep>
  <scstep>
   <time name="dav">    0.06    0.07</time>
   <time name="total">    0.07    0.07</time>
   <energy>
    <i name="e_fr_energy">     -2.30226180 </i>
    <i name="e_wo_entrp">     -2.30133908 </i>
    <i name="e_0_energy">     -2.30180044 </i>
   </energy>
  </scstep>
  <scstep>
   <time name="dav">    0.07    0.07</time>
   <time name="total">    0.08    0.08</time>
   <energy>
    <i name="e_fr_energy">     -2.29711480 </i>
    <i name="e_wo_entrp">     -2.29621001 </i>
    <i name="e_0_energy">     -2.29666241 </i>
   </energy>
  </scstep>
  <scstep>
   <time name="dav">    0.06    0.06</time>
   <time name="total">    0.07    0.07</time>
   <energy>
    <i name="e_fr_energy">     -2.28887845 </i>
    <i name="e_wo_entrp">     -2.28798005 </i>
    <i name="e_0_energy">     -2.28842925 </i>
   </energy>
  </scstep>
  <scstep>
   <time name="dav">    0.06    0.06</time>
   <time name="total">    0.07    0.07</time>
   <energy>
    <i name="e_fr_energy">     -2.28889185 </i>
    <i name="e_wo_entrp">     -2.28798192 </i>
    <i name="e_0_energy">     -2.28843689 </i>
   </energy>
  </scstep>
  <scstep>
   <time name="dav">    0.04    0.05</time>
   <time name="total">    0.05    0.05</time>
   <energy>
    <i name="e_fr_energy">     -2.28864057 </i>
    <i name="e_wo_entrp">     -2.28773265 </i>
    <i name="e_0_energy">     -2.28818661 </i>
   </energy>
  </scstep>
  <scstep>
   <time name="dav">    0.06    0.06</time>
   <time name="total">    0.07    0.07</time>
   <energy>
    <i name="e_fr_energy">     -2.28846323 </i>
    <i name="e_wo_entrp">     -2.28755997 </i>
    <i name="e_0_energy">     -2.28801160 </i>
   </energy>
  </scstep>
  <scstep>
   <time name="dav">    0.04    0.04</time>
   <time name="total">    0.04    0.05</time>
   <energy>
    <i name="alphaZ">     47.11303667 </i>
    <i name="ewald">   -823.93901355 </i>
    <i name="hartreedc">   -487.37381225 </i>
    <i name="XCdc">     41.77485940 </i>
    <i name="pawpsdc">   1062.05849496 </i>
    <i name="pawaedc">  -1206.51959254 </i>
    <i name="eentropy">     -0.00090393 </i>
    <i name="bandstr">    -28.43981479 </i>
    <i name="atom">   1393.03828842 </i>
    <i name="e_fr_energy">     -2.28845763 </i>
    <i name="e_wo_entrp">     -2.28755369 </i>
    <i name="e_0_energy">     -2.28800566 </i>
   </energy>
  </scstep>
  <structure>
   <crystal>
    <varray name="basis" >
     <v>       3.00000000       0.00000000       0.00000000 </v>
     <v>       0.00000000       3.00000000       0.00000000 </v>
     <v>       0.00000000       0.00000000       3.00000000 </v>
    </varray>
    <i name="volume">     27.00000000 </i>
    <varray name="rec_basis" >
     <v>       0.33333333       0.00000000       0.00000000 </v>
     <v>       0.00000000       0.33333333       0.00000000 </v>
     <v>       0.00000000       0.00000000       0.33333333 </v>
    </varray>
   </crystal>
   <varray name="positions" >
    <v>       0.00000000       0.00000000       0.00000000 </v>
   </varray>
  </structure>
  <varray name="forces" >
   <v>       0.00000000      -0.00000000       0.00000000 </v>
  </varray>
  <varray name="stress" >
   <v>    -123.49786812       0.00000000       0.00000000 </v>
   <v>      -0.00000000    -123.49786812       0.00000000 </v>
   <v>       0.00000000      -0.00000000    -123.49786812 </v>
  </varray>
  <energy>
   <i name="e_fr_energy">     -2.28845763 </i>
   <i name="e_wo_entrp">     -2.28755369 </i>
   <i name="e_0_energy">     -2.28800566 </i>
  </energy>
  <time name="totalsc">    2.16    2.25</time>
  <eigenvalues>
   <array>
    <dimension dim="1">band</dimension>
    <dimension dim="2">kpoint</dimension>
    <dimension dim="3">spin</dimension>
    <field>eigene</field>
    <field>occ</field>
    <set>
     <set comment="spin 1">
      <set comment="kpoint 1">
       <r>   -5.5607    1.0000 </r>
       <r>   -3.0292    1.0000 </r>
       <r>   -3.0292    1.0000 </r>
       <r>   -2.1474    1.0000 </r>
       <r>   -2.1457    1.0000 </r>
       <r>   -2.1457    1.0000 </r>
       <r>   10.0694    0.0000 </r>
       <r>   10.0694    0.0000 </r>
       <r>   10.2212    0.0000 </r>
       <r>   14.0336    0.0000 </r>
      </set>
      <set comment="kpoint 2">
       <r>   -5.3288    1.0000 </r>
       <r>   -3.0158    1.0000 </r>
       <r>   -2.9730    1.0000 </r>
       <r>   -2.1821    1.0000 </r>
       <r>   -2.1813    1.0000 </r>
       <r>   -2.1431    1.0000 </r>
       <r>    7.9599    0.0000 </r>
       <r>   10.3237    0.0000 </r>
       <r>   10.4364    0.0000 </r>
       <r>   14.2184    0.0000 </r>
      </set>
      <set comment="kpoint 3">
       <r>   -4.8823    1.0000 </r>
       <r>   -2.9926    1.0000 </r>
       <r>   -2.8562    1.0000 </r>
       <r>   -2.2420    1.0000 </r>
       <r>   -2.2410    1.0000 </r>
       <r>   -2.1379    1.0000 </r>
       <r>    5.7151    0.0000 </r>
       <r>   10.8155    0.0000 </r>
       <r>   10.9318    0.0000 </r>
       <r>   14.5864    0.0000 </r>
      </set>
      <set comment="kpoint 4">
       <r>   -4.2805    1.0000 </r>
       <r>   -2.9654    1.0000 </r>
       <r>   -2.6486    1.0000 </r>
       <r>   -2.3106    1.0000 </r>
       <r>   -2.3002    1.0000 </r>
       <r>   -2.1318    1.0000 </r>
       <r>    3.6284    0.0000 </r>
       <r>   11.5113    0.0000 </r>
       <r>   11.6374    0.0000 </r>
       <r>   15.1321    0.0000 </r>
      </set>
      <set comment="kpoint 5">
       <r>   -3.7056    1.0000 </r>
       <r>   -2.9417    1.0000 </r>
       <r>   -2.4143    1.0000 </r>
       <r>   -2.3689    1.0000 </r>
       <r>   -2.1305    1.0000 </r>
       <r>   -2.1245    1.0000 </r>
       <r>    1.7515    0.0000 </r>
       <r>   12.3383    0.0000 </r>
       <r>   12.4897    0.0000 </r>
       <r>   15.7402    0.0000 </r>
      </set>
      <set comment="kpoint 6">
       <r>   -3.4124    1.0000 </r>
       <r>   -2.9279    1.0000 </r>
       <r>   -2.4260    1.0000 </r>
       <r>   -2.4020    1.0000 </r>
       <r>   -2.1236    1.0000 </r>
       <r>   -1.2242    1.0000 </r>
       <r>    0.1183    0.0000 </r>
       <r>   13.0721    0.0000 </r>
       <r>   13.2823    0.0000 </r>
       <r>   15.4875    0.0000 </r>
      </set>
      <set comment="kpoint 7">
       <r>   -5.0973    1.0000 </r>
       <r>   -2.9811    1.0000 </r>
       <r>   -2.9380    1.0000 </r>
       <r>   -2.2182    1.0000 </r>
       <r>   -2.1826    1.0000 </r>
       <r>   -2.1737    1.0000 </r>
       <r>    8.0245    0.0000 </r>
       <r>    8.3912    0.0000 </r>
       <r>   10.6406    0.0000 </r>
       <r>   14.6312    0.0000 </r>
      </set>
      <set comment="kpoint 8">
       <r>   -4.6532    1.0000 </r>
       <r>   -2.9495    1.0000 </r>
       <r>   -2.8305    1.0000 </r>
       <r>   -2.2768    1.0000 </r>
       <r>   -2.2375    1.0000 </r>
       <r>   -2.1714    1.0000 </r>
       <r>    5.9373    0.0000 </r>
       <r>    8.7055    0.0000 </r>
       <r>   11.1329    0.0000 </r>
       <r>   14.9869    0.0000 </r>
      </set>
      <set comment="kpoint 9">
       <r>   -4.0625    1.0000 </r>
       <r>   -2.9190    1.0000 </r>
       <r>   -2.6478    1.0000 </r>
       <r>   -2.3223    1.0000 </r>
       <r>   -2.2886    1.0000 </r>
       <r>   -2.1645    1.0000 </r>
       <r>    3.8544    0.0000 </r>
       <r>    9.3867    0.0000 </r>
       <r>   11.8322    0.0000 </r>
       <r>   15.4320    0.0000 </r>
      </set>
      <set comment="kpoint 10">
       <r>   -3.5221    1.0000 </r>
       <r>   -2.8908    1.0000 </r>
       <r>   -2.5324    1.0000 </r>
       <r>   -2.3683    1.0000 </r>
       <r>   -2.1594    1.0000 </r>
       <r>   -1.9793    1.0000 </r>
       <r>    1.9776    0.0000 </r>
       <r>   10.2419    0.0000 </r>
       <r>   12.6712    0.0000 </r>
       <r>   14.7196    0.0000 </r>
      </set>
      <set comment="kpoint 11">
       <r>   -3.2622    1.0000 </r>
       <r>   -2.8717    1.0000 </r>
       <r>   -2.5489    1.0000 </r>
       <r>   -2.4002    1.0000 </r>
       <r>   -2.1556    1.0000 </r>
       <r>   -1.0502    0.4686 </r>
       <r>    0.3497    0.0000 </r>
       <r>   11.0954    0.0000 </r>
       <r>   13.3708    0.0000 </r>
       <r>   13.5904    0.0000 </r>
      </set>
      <set comment="kpoint 12">
       <r>   -4.2199    1.0000 </r>
       <r>   -2.8861    1.0000 </r>
       <r>   -2.7569    1.0000 </r>
       <r>   -2.3267    1.0000 </r>
       <r>   -2.2363    1.0000 </r>
       <r>   -2.2220    1.0000 </r>
       <r>    6.0846    0.0000 </r>
       <r>    6.7765    0.0000 </r>
       <r>   11.6217    0.0000 </r>
       <r>   15.2798    0.0000 </r>
      </set>
      <set comment="kpoint 13">
       <r>   -3.6745    1.0000 </r>
       <r>   -2.8349    1.0000 </r>
       <r>   -2.6269    1.0000 </r>
       <r>   -2.3192    1.0000 </r>
       <r>   -2.2605    1.0000 </r>
       <r>   -2.2175    1.0000 </r>
       <r>    4.2734    0.0000 </r>
       <r>    7.1798    0.0000 </r>
       <r>   12.3093    0.0000 </r>
       <r>   14.3301    0.0000 </r>
      </set>
      <set comment="kpoint 14">
       <r>   -3.2503    1.0000 </r>
       <r>   -2.7902    1.0000 </r>
       <r>   -2.6131    1.0000 </r>
       <r>   -2.3582    1.0000 </r>
       <r>   -2.2145    1.0000 </r>
       <r>   -1.7548    1.0000 </r>
       <r>    2.4120    0.0000 </r>
       <r>    8.0172    0.0000 </r>
       <r>   12.5609    0.0000 </r>
       <r>   13.2662    0.0000 </r>
      </set>
      <set comment="kpoint 15">
       <r>   -3.0762    1.0000 </r>
       <r>   -2.7410    1.0000 </r>
       <r>   -2.6684    1.0000 </r>
       <r>   -2.3892    1.0000 </r>
       <r>   -2.2100    1.0000 </r>
       <r>   -0.7522    0.0000 </r>
       <r>    0.8072    0.0000 </r>
       <r>    8.8692    0.0000 </r>
       <r>   11.3458    0.0000 </r>
       <r>   13.9898    0.0000 </r>
      </set>
      <set comment="kpoint 16">
       <r>   -3.2827    1.0000 </r>
       <r>   -2.7993    1.0000 </r>
       <r>   -2.4986    1.0000 </r>
       <r>   -2.3054    1.0000 </r>
       <r>   -2.2770    1.0000 </r>
       <r>   -2.0552    1.0000 </r>
       <r>    4.4762    0.0000 </r>
       <r>    5.5591    0.0000 </r>
       <r>   12.3146    0.0000 </r>
       <r>   13.1259    0.0000 </r>
      </set>
      <set comment="kpoint 17">
       <r>   -3.0681    1.0000 </r>
       <r>   -2.8308    1.0000 </r>
       <r>   -2.4118    1.0000 </r>
       <r>   -2.3460    1.0000 </r>
       <r>   -2.2747    1.0000 </r>
       <r>   -1.3357    1.0000 </r>
       <r>    2.9951    0.0000 </r>
       <r>    5.9989    0.0000 </r>
       <r>   10.6822    0.0000 </r>
       <r>   13.9191    0.0000 </r>
      </set>
      <set comment="kpoint 18">
       <r>   -2.9760    1.0000 </r>
       <r>   -2.8689    1.0000 </r>
       <r>   -2.3841    1.0000 </r>
       <r>   -2.3762    1.0000 </r>
       <r>   -2.2681    1.0000 </r>
       <r>   -0.2771    0.0000 </r>
       <r>    1.4512    0.0000 </r>
       <r>    6.7757    0.0000 </r>
       <r>    9.4394    0.0000 </r>
       <r>   14.7157    0.0000 </r>
      </set>
      <set comment="kpoint 19">
       <r>   -2.9924    1.0000 </r>
       <r>   -2.8985    1.0000 </r>
       <r>   -2.3394    1.0000 </r>
       <r>   -2.3315    1.0000 </r>
       <r>   -2.2004    1.0000 </r>
       <r>   -0.5587    0.0000 </r>
       <r>    3.2765    0.0000 </r>
       <r>    4.6398    0.0000 </r>
       <r>    9.0224    0.0000 </r>
       <r>   14.7763    0.0000 </r>
      </set>
      <set comment="kpoint 20">
       <r>   -2.9848    1.0000 </r>
       <r>   -2.9126    1.0000 </r>
       <r>   -2.3649    1.0000 </r>
       <r>   -2.3290    1.0000 </r>
       <r>   -2.1150    1.0000 </r>
       <r>    0.4831    0.0000 </r>
       <r>    2.1817    0.0000 </r>
       <r>    4.9036    0.0000 </r>
       <r>    7.8542    0.0000 </r>
       <r>   15.5858    0.0000 </r>
      </set>
      <set comment="kpoint 21">
       <r>   -3.0368    1.0000 </r>
       <r>   -2.8896    1.0000 </r>
       <r>   -2.3589    1.0000 </r>
       <r>   -2.3578    1.0000 </r>
       <r>   -1.9860    1.0000 </r>
       <r>    1.5202    0.0000 </r>
       <r>    2.6046    0.0000 </r>
       <r>    3.4988    0.0000 </r>
       <r>    6.8172    0.0000 </r>
       <r>   16.3772    0.0000 </r>
      </set>
      <set comment="kpoint 22">
       <r>   -4.8663    1.0000 </r>
       <r>   -2.9248    1.0000 </r>
       <r>   -2.9248    1.0000 </r>
       <r>   -2.2166    1.0000 </r>
       <r>   -2.2125    1.0000 </r>
       <r>   -2.2125    1.0000 </r>
       <r>    8.2692    0.0000 </r>
       <r>    8.2692    0.0000 </r>
       <r>    8.8303    0.0000 </r>
       <r>   17.0343    0.0000 </r>
      </set>
      <set comment="kpoint 23">
       <r>   -4.4250    1.0000 </r>
       <r>   -2.9015    1.0000 </r>
       <r>   -2.8111    1.0000 </r>
       <r>   -2.2791    1.0000 </r>
       <r>   -2.2632    1.0000 </r>
       <r>   -2.2064    1.0000 </r>
       <r>    6.1622    0.0000 </r>
       <r>    8.7447    0.0000 </r>
       <r>    9.1568    0.0000 </r>
       <r>   17.2597    0.0000 </r>
      </set>
      <set comment="kpoint 24">
       <r>   -3.8471    1.0000 </r>
       <r>   -2.8736    1.0000 </r>
       <r>   -2.6448    1.0000 </r>
       <r>   -2.3550    1.0000 </r>
       <r>   -2.2579    1.0000 </r>
       <r>   -2.1944    1.0000 </r>
       <r>    4.0821    0.0000 </r>
       <r>    9.4227    0.0000 </r>
       <r>    9.8390    0.0000 </r>
       <r>   16.3593    0.0000 </r>
      </set>
      <set comment="kpoint 25">
       <r>   -3.3430    1.0000 </r>
       <r>   -2.8480    1.0000 </r>
       <r>   -2.5675    1.0000 </r>
       <r>   -2.4204    1.0000 </r>
       <r>   -2.1956    1.0000 </r>
       <r>   -1.8465    1.0000 </r>
       <r>    2.2063    0.0000 </r>
       <r>   10.2428    0.0000 </r>
       <r>   10.7298    0.0000 </r>
       <r>   14.8732    0.0000 </r>
      </set>
      <set comment="kpoint 26">
       <r>   -3.1076    1.0000 </r>
       <r>   -2.8322    1.0000 </r>
       <r>   -2.5896    1.0000 </r>
       <r>   -2.4585    1.0000 </r>
       <r>   -2.1903    1.0000 </r>
       <r>   -0.8910    0.0000 </r>
       <r>    0.5902    0.0000 </r>
       <r>   10.9936    0.0000 </r>
       <r>   11.7334    0.0000 </r>
       <r>   13.5060    0.0000 </r>
      </set>
      <set comment="kpoint 27">
       <r>   -3.9963    1.0000 </r>
       <r>   -2.8333    1.0000 </r>
       <r>   -2.7460    1.0000 </r>
       <r>   -2.3271    1.0000 </r>
       <r>   -2.2658    1.0000 </r>
       <r>   -2.2471    1.0000 </r>
       <r>    6.3323    0.0000 </r>
       <r>    6.9664    0.0000 </r>
       <r>    9.4478    0.0000 </r>
       <r>   16.5060    0.0000 </r>
      </set>
      <set comment="kpoint 28">
       <r>   -3.4724    1.0000 </r>
       <r>   -2.7914    1.0000 </r>
       <r>   -2.6219    1.0000 </r>
       <r>   -2.3786    1.0000 </r>
       <r>   -2.2725    1.0000 </r>
       <r>   -2.1652    1.0000 </r>
       <r>    4.5065    0.0000 </r>
       <r>    7.3886    0.0000 </r>
       <r>   10.1177    0.0000 </r>
       <r>   14.6374    0.0000 </r>
      </set>
      <set comment="kpoint 29">
       <r>   -3.0899    1.0000 </r>
       <r>   -2.7599    1.0000 </r>
       <r>   -2.6091    1.0000 </r>
       <r>   -2.4338    1.0000 </r>
       <r>   -2.2541    1.0000 </r>
       <r>   -1.6046    1.0000 </r>
       <r>    2.6456    0.0000 </r>
       <r>    8.2216    0.0000 </r>
       <r>   10.9486    0.0000 </r>
       <r>   12.9684    0.0000 </r>
      </set>
      <set comment="kpoint 30">
       <r>   -2.9256    1.0000 </r>
       <r>   -2.7308    1.0000 </r>
       <r>   -2.6595    1.0000 </r>
       <r>   -2.4701    1.0000 </r>
       <r>   -2.2468    1.0000 </r>
       <r>   -0.5904    0.0000 </r>
       <r>    1.0566    0.0000 </r>
       <r>    9.0550    0.0000 </r>
       <r>   11.4286    0.0000 </r>
       <r>   12.0912    0.0000 </r>
      </set>
      <set comment="kpoint 31">
       <r>   -3.1247    1.0000 </r>
       <r>   -2.7612    1.0000 </r>
       <r>   -2.5027    1.0000 </r>
       <r>   -2.3847    1.0000 </r>
       <r>   -2.3176    1.0000 </r>
       <r>   -1.8975    1.0000 </r>
       <r>    4.7318    0.0000 </r>
       <r>    5.7519    0.0000 </r>
       <r>   10.7406    0.0000 </r>
       <r>   12.7526    0.0000 </r>
      </set>
      <set comment="kpoint 32">
       <r>   -2.9507    1.0000 </r>
       <r>   -2.7898    1.0000 </r>
       <r>   -2.4367    1.0000 </r>
       <r>   -2.4209    1.0000 </r>
       <r>   -2.2965    1.0000 </r>
       <r>   -1.1448    0.9953 </r>
       <r>    3.2384    0.0000 </r>
       <r>    6.2066    0.0000 </r>
       <r>   10.7397    0.0000 </r>
       <r>   11.9185    0.0000 </r>
      </set>
      <set comment="kpoint 33">
       <r>   -2.8738    1.0000 </r>
       <r>   -2.8228    1.0000 </r>
       <r>   -2.4580    1.0000 </r>
       <r>   -2.4157    1.0000 </r>
       <r>   -2.2753    1.0000 </r>
       <r>   -0.0919    0.0000 </r>
       <r>    1.7062    0.0000 </r>
       <r>    6.9832    0.0000 </r>
       <r>    9.6243    0.0000 </r>
       <r>   12.6812    0.0000 </r>
      </set>
      <set comment="kpoint 34">
       <r>   -2.9346    1.0000 </r>
       <r>   -2.8089    1.0000 </r>
       <r>   -2.4158    1.0000 </r>
       <r>   -2.4102    1.0000 </r>
       <r>   -2.1814    1.0000 </r>
       <r>   -0.3451    0.0000 </r>
       <r>    3.5446    0.0000 </r>
       <r>    4.8301    0.0000 </r>
       <r>    9.2002    0.0000 </r>
       <r>   12.6635    0.0000 </r>
      </set>
      <set comment="kpoint 35">
       <r>   -2.9594    1.0000 </r>
       <r>   -2.7921    1.0000 </r>
       <r>   -2.4441    1.0000 </r>
       <r>   -2.4048    1.0000 </r>
       <r>   -2.1004    1.0000 </r>
       <r>    0.6922    0.0000 </r>
       <r>    2.4444    0.0000 </r>
       <r>    5.1142    0.0000 </r>
       <r>    8.0438    0.0000 </r>
       <r>   13.5600    0.0000 </r>
      </set>
      <set comment="kpoint 36">
       <r>   -3.0115    1.0000 </r>
       <r>   -2.7682    1.0000 </r>
       <r>   -2.4361    1.0000 </r>
       <r>   -2.4350    1.0000 </r>
       <r>   -1.9820    1.0000 </r>
       <r>    1.7404    0.0000 </r>
       <r>    2.8847    0.0000 </r>
       <r>    3.7017    0.0000 </r>
       <r>    7.0011    0.0000 </r>
       <r>   14.4844    0.0000 </r>
      </set>
      <set comment="kpoint 37">
       <r>   -3.5893    1.0000 </r>
       <r>   -2.7264    1.0000 </r>
       <r>   -2.7264    1.0000 </r>
       <r>   -2.3406    1.0000 </r>
       <r>   -2.3406    1.0000 </r>
       <r>   -2.2221    1.0000 </r>
       <r>    6.8113    0.0000 </r>
       <r>    6.8113    0.0000 </r>
       <r>    7.7972    0.0000 </r>
       <r>   16.8431    0.0000 </r>
      </set>
      <set comment="kpoint 38">
       <r>   -3.1515    1.0000 </r>
       <r>   -2.7014    1.0000 </r>
       <r>   -2.6064    1.0000 </r>
       <r>   -2.4264    1.0000 </r>
       <r>   -2.3371    1.0000 </r>
       <r>   -2.0100    1.0000 </r>
       <r>    4.9442    0.0000 </r>
       <r>    7.4886    0.0000 </r>
       <r>    8.2478    0.0000 </r>
       <r>   15.0344    0.0000 </r>
      </set>
      <set comment="kpoint 39">
       <r>   -2.8920    1.0000 </r>
       <r>   -2.6743    1.0000 </r>
       <r>   -2.6001    1.0000 </r>
       <r>   -2.5035    1.0000 </r>
       <r>   -2.3123    1.0000 </r>
       <r>   -1.3026    1.0000 </r>
       <r>    3.0937    0.0000 </r>
       <r>    8.2931    0.0000 </r>
       <r>    9.1160    0.0000 </r>
       <r>   13.2624    0.0000 </r>
      </set>
      <set comment="kpoint 40">
       <r>   -2.7691    1.0000 </r>
       <r>   -2.6502    1.0000 </r>
       <r>   -2.6462    1.0000 </r>
       <r>   -2.5556    1.0000 </r>
       <r>   -2.2994    1.0000 </r>
       <r>   -0.2618    0.0000 </r>
       <r>    1.5319    0.0000 </r>
       <r>    8.9991    0.0000 </r>
       <r>   10.1797    0.0000 </r>
       <r>   11.7410    0.0000 </r>
      </set>
      <set comment="kpoint 41">
       <r>   -2.9255    1.0000 </r>
       <r>   -2.6588    1.0000 </r>
       <r>   -2.5244    1.0000 </r>
       <r>   -2.4517    1.0000 </r>
       <r>   -2.3693    1.0000 </r>
       <r>   -1.5908    1.0000 </r>
       <r>    5.2215    0.0000 </r>
       <r>    6.0890    0.0000 </r>
       <r>    8.6126    0.0000 </r>
       <r>   13.1740    0.0000 </r>
      </set>
      <set comment="kpoint 42">
       <r>   -2.8486    1.0000 </r>
       <r>   -2.6545    1.0000 </r>
       <r>   -2.5246    1.0000 </r>
       <r>   -2.4797    1.0000 </r>
       <r>   -2.3037    1.0000 </r>
       <r>   -0.7647    0.0000 </r>
       <r>    3.7024    0.0000 </r>
       <r>    6.5840    0.0000 </r>
       <r>    9.3955    0.0000 </r>
       <r>   11.5302    0.0000 </r>
      </set>
      <set comment="kpoint 43">
       <r>   -2.8348    1.0000 </r>
       <r>   -2.6314    1.0000 </r>
       <r>   -2.5732    1.0000 </r>
       <r>   -2.4766    1.0000 </r>
       <r>   -2.2640    1.0000 </r>
       <r>    0.2837    0.0000 </r>
       <r>    2.1890    0.0000 </r>
       <r>    7.3378    0.0000 </r>
       <r>    9.8495    0.0000 </r>
       <r>   10.7210    0.0000 </r>
      </set>
      <set comment="kpoint 44">
       <r>   -2.8864    1.0000 </r>
       <r>   -2.6364    1.0000 </r>
       <r>   -2.5234    1.0000 </r>
       <r>   -2.4983    1.0000 </r>
       <r>   -2.1649    1.0000 </r>
       <r>    0.0729    0.0000 </r>
       <r>    4.0506    0.0000 </r>
       <r>    5.1965    0.0000 </r>
       <r>    9.3882    0.0000 </r>
       <r>   10.7139    0.0000 </r>
      </set>
      <set comment="kpoint 45">
       <r>   -2.9190    1.0000 </r>
       <r>   -2.6060    1.0000 </r>
       <r>   -2.5614    1.0000 </r>
       <r>   -2.4990    1.0000 </r>
       <r>   -2.0844    1.0000 </r>
       <r>    1.1041    0.0000 </r>
       <r>    2.9389    0.0000 </r>
       <r>    5.5150    0.0000 </r>
       <r>    8.4111    0.0000 </r>
       <r>   11.4205    0.0000 </r>
      </set>
      <set comment="kpoint 46">
       <r>   -2.9677    1.0000 </r>
       <r>   -2.5803    1.0000 </r>
       <r>   -2.5572    1.0000 </r>
       <r>   -2.5337    1.0000 </r>
       <r>   -1.9765    1.0000 </r>
       <r>    2.1628    0.0000 </r>
       <r>    3.4067    0.0000 </r>
       <r>    4.1057    0.0000 </r>
       <r>    7.3718    0.0000 </r>
       <r>   12.3283    0.0000 </r>
      </set>
      <set comment="kpoint 47">
       <r>   -2.8385    1.0000 </r>
       <r>   -2.5784    1.0000 </r>
       <r>   -2.5784    1.0000 </r>
       <r>   -2.3947    1.0000 </r>
       <r>   -2.3947    1.0000 </r>
       <r>   -1.0252    0.2164 </r>
       <r>    5.9021    0.0000 </r>
       <r>    5.9021    0.0000 </r>
       <r>    7.3705    0.0000 </r>
       <r>   13.6761    0.0000 </r>
      </set>
      <set comment="kpoint 48">
       <r>   -2.8233    1.0000 </r>
       <r>   -2.6397    1.0000 </r>
       <r>   -2.5830    1.0000 </r>
       <r>   -2.3983    1.0000 </r>
       <r>   -2.2693    1.0000 </r>
       <r>   -0.1566    0.0000 </r>
       <r>    4.3335    0.0000 </r>
       <r>    6.6888    0.0000 </r>
       <r>    7.9468    0.0000 </r>
       <r>   11.9541    0.0000 </r>
      </set>
      <set comment="kpoint 49">
       <r>   -2.8284    1.0000 </r>
       <r>   -2.6771    1.0000 </r>
       <r>   -2.5825    1.0000 </r>
       <r>   -2.3968    1.0000 </r>
       <r>   -2.2046    1.0000 </r>
       <r>    0.8791    0.0000 </r>
       <r>    2.8535    0.0000 </r>
       <r>    7.3442    0.0000 </r>
       <r>    8.9804    0.0000 </r>
       <r>   10.4082    0.0000 </r>
      </set>
      <set comment="kpoint 50">
       <r>   -2.8463    1.0000 </r>
       <r>   -2.6705    1.0000 </r>
       <r>   -2.6385    1.0000 </r>
       <r>   -2.3349    1.0000 </r>
       <r>   -2.1523    1.0000 </r>
       <r>    0.7068    0.0000 </r>
       <r>    4.7399    0.0000 </r>
       <r>    5.6497    0.0000 </r>
       <r>    8.3123    0.0000 </r>
       <r>   10.5110    0.0000 </r>
      </set>
      <set comment="kpoint 51">
       <r>   -2.8749    1.0000 </r>
       <r>   -2.6962    1.0000 </r>
       <r>   -2.6476    1.0000 </r>
       <r>   -2.3220    1.0000 </r>
       <r>   -2.0685    1.0000 </r>
       <r>    1.7266    0.0000 </r>
       <r>    3.6137    0.0000 </r>
       <r>    6.0178    0.0000 </r>
       <r>    8.7869    0.0000 </r>
       <r>    9.6860    0.0000 </r>
      </set>
      <set comment="kpoint 52">
       <r>   -2.9172    1.0000 </r>
       <r>   -2.6898    1.0000 </r>
       <r>   -2.6842    1.0000 </r>
       <r>   -2.3030    1.0000 </r>
       <r>   -1.9712    1.0000 </r>
       <r>    2.7798    0.0000 </r>
       <r>    4.1062    0.0000 </r>
       <r>    4.6847    0.0000 </r>
       <r>    7.9279    0.0000 </r>
       <r>   10.3131    0.0000 </r>
      </set>
      <set comment="kpoint 53">
       <r>   -2.8332    1.0000 </r>
       <r>   -2.7298    1.0000 </r>
       <r>   -2.7298    1.0000 </r>
       <r>   -2.1435    1.0000 </r>
       <r>   -2.1435    1.0000 </r>
       <r>    1.5694    0.0000 </r>
       <r>    5.5141    0.0000 </r>
       <r>    5.5141    0.0000 </r>
       <r>    7.5170    0.0000 </r>
       <r>   10.8865    0.0000 </r>
      </set>
      <set comment="kpoint 54">
       <r>   -2.8510    1.0000 </r>
       <r>   -2.7797    1.0000 </r>
       <r>   -2.7372    1.0000 </r>
       <r>   -2.1388    1.0000 </r>
       <r>   -2.0374    1.0000 </r>
       <r>    2.5744    0.0000 </r>
       <r>    4.3775    0.0000 </r>
       <r>    6.1311    0.0000 </r>
       <r>    8.1907    0.0000 </r>
       <r>    9.5544    0.0000 </r>
      </set>
      <set comment="kpoint 55">
       <r>   -2.8735    1.0000 </r>
       <r>   -2.7898    1.0000 </r>
       <r>   -2.7850    1.0000 </r>
       <r>   -2.0881    1.0000 </r>
       <r>   -1.9670    1.0000 </r>
       <r>    3.5960    0.0000 </r>
       <r>    4.8767    0.0000 </r>
       <r>    5.3139    0.0000 </r>
       <r>    8.4134    0.0000 </r>
       <r>    8.8562    0.0000 </r>
      </set>
      <set comment="kpoint 56">
       <r>   -2.8528    1.0000 </r>
       <r>   -2.8400    1.0000 </r>
       <r>   -2.8400    1.0000 </r>
       <r>   -1.9648    1.0000 </r>
       <r>   -1.9648    1.0000 </r>
       <r>    4.5551    0.0000 </r>
       <r>    5.4747    0.0000 </r>
       <r>    5.4747    0.0000 </r>
       <r>    7.5877    0.0000 </r>
       <r>    9.3260    0.0000 </r>
      </set>
     </set>
    </set>
   </array>
  </eigenvalues>
  <separator name="orbital magnetization" >
   <v name="MAGDIPOLOUT">      0.00000000      0.00000000      0.00000000</v>
  </separator>
  <dos>
   <i name="efermi">     -1.05294980 </i>
   <total>
    <array>
     <dimension dim="1">gridpoints</dimension>
     <dimension dim="2">spin</dimension>
     <field>energy</field>
     <field>total</field>
     <field>integrated</field>
     <set>
      <set comment="spin 1">
       <r>    -6.7018     0.0000     0.0000 </r>
       <r>    -6.6181     0.0000     0.0000 </r>
       <r>    -6.5344     0.0000     0.0000 </r>
       <r>    -6.4507     0.0000     0.0000 </r>
       <r>    -6.3671     0.0000     0.0000 </r>
       <r>    -6.2834     0.0000     0.0000 </r>
       <r>    -6.1997     0.0000     0.0000 </r>
       <r>    -6.1160     0.0000     0.0000 </r>
       <r>    -6.0324     0.0000     0.0000 </r>
       <r>    -5.9487     0.0000     0.0000 </r>
       <r>    -5.8650     0.0000     0.0000 </r>
       <r>    -5.7813     0.0000     0.0000 </r>
       <r>    -5.6977     0.0000     0.0000 </r>
       <r>    -5.6140     0.0073     0.0006 </r>
       <r>    -5.5303     0.0818     0.0075 </r>
       <r>    -5.4466     0.0216     0.0093 </r>
       <r>    -5.3630     0.0554     0.0139 </r>
       <r>    -5.2793     0.2497     0.0348 </r>
       <r>    -5.1956     0.0276     0.0371 </r>
       <r>    -5.1119     0.1119     0.0465 </r>
       <r>    -5.0283     0.2107     0.0641 </r>
       <r>    -4.9446     0.0228     0.0660 </r>
       <r>    -4.8609     0.2890     0.0902 </r>
       <r>    -4.7772     0.1382     0.1018 </r>
       <r>    -4.6936     0.0852     0.1089 </r>
       <r>    -4.6099     0.5065     0.1513 </r>
       <r>    -4.5262     0.0737     0.1575 </r>
       <r>    -4.4425     0.1021     0.1660 </r>
       <r>    -4.3589     0.2235     0.1847 </r>
       <r>    -4.2752     0.2112     0.2024 </r>
       <r>    -4.1915     0.3867     0.2347 </r>
       <r>    -4.1078     0.1380     0.2463 </r>
       <r>    -4.0242     0.5766     0.2945 </r>
       <r>    -3.9405     0.3353     0.3226 </r>
       <r>    -3.8568     0.1477     0.3349 </r>
       <r>    -3.7731     0.2071     0.3523 </r>
       <r>    -3.6895     0.4423     0.3893 </r>
       <r>    -3.6058     0.5721     0.4371 </r>
       <r>    -3.5221     0.4692     0.4764 </r>
       <r>    -3.4384     0.9059     0.5522 </r>
       <r>    -3.3548     0.4884     0.5931 </r>
       <r>    -3.2711     0.8681     0.6657 </r>
       <r>    -3.1874     1.0403     0.7528 </r>
       <r>    -3.1037     1.1876     0.8521 </r>
       <r>    -3.0201     2.8180     1.0879 </r>
       <r>    -2.9364     6.6516     1.6445 </r>
       <r>    -2.8527    10.8418     2.5517 </r>
       <r>    -2.7690    10.5650     3.4357 </r>
       <r>    -2.6854     6.8309     4.0073 </r>
       <r>    -2.6017     9.7040     4.8193 </r>
       <r>    -2.5180     7.7392     5.4669 </r>
       <r>    -2.4343     8.4719     6.1758 </r>
       <r>    -2.3507    12.8709     7.2527 </r>
       <r>    -2.2670    13.7812     8.4059 </r>
       <r>    -2.1833    12.0512     9.4143 </r>
       <r>    -2.0996     8.4230    10.1190 </r>
       <r>    -2.0160     3.2774    10.3933 </r>
       <r>    -1.9323     2.3721    10.5918 </r>
       <r>    -1.8486     0.6958    10.6500 </r>
       <r>    -1.7649     0.4527    10.6879 </r>
       <r>    -1.6813     0.4098    10.7222 </r>
       <r>    -1.5976     0.5256    10.7661 </r>
       <r>    -1.5139     0.4627    10.8049 </r>
       <r>    -1.4302     0.0109    10.8058 </r>
       <r>    -1.3466     0.2850    10.8296 </r>
       <r>    -1.2629     0.6978    10.8880 </r>
       <r>    -1.1792     0.4188    10.9230 </r>
       <r>    -1.0955     0.6023    10.9734 </r>
       <r>    -1.0119     0.6285    11.0260 </r>
       <r>    -0.9282     0.1797    11.0411 </r>
       <r>    -0.8445     0.2635    11.0631 </r>
       <r>    -0.7608     0.6489    11.1174 </r>
       <r>    -0.6772     0.6885    11.1750 </r>
       <r>    -0.5935     0.3736    11.2063 </r>
       <r>    -0.5098     0.5980    11.2563 </r>
       <r>    -0.4261     0.0388    11.2596 </r>
       <r>    -0.3425     0.1975    11.2761 </r>
       <r>    -0.2588     0.7698    11.3405 </r>
       <r>    -0.1751     0.4591    11.3789 </r>
       <r>    -0.0914     0.5541    11.4253 </r>
       <r>    -0.0078     0.3377    11.4535 </r>
       <r>     0.0759     0.2176    11.4717 </r>
       <r>     0.1596     0.4058    11.5057 </r>
       <r>     0.2433     0.1272    11.5163 </r>
       <r>     0.3269     0.6785    11.5731 </r>
       <r>     0.4106     0.5499    11.6191 </r>
       <r>     0.4943     0.4306    11.6552 </r>
       <r>     0.5780     0.3671    11.6859 </r>
       <r>     0.6616     0.3681    11.7167 </r>
       <r>     0.7453     0.7776    11.7817 </r>
       <r>     0.8290     0.5743    11.8298 </r>
       <r>     0.9127     0.4271    11.8655 </r>
       <r>     0.9963     0.0878    11.8729 </r>
       <r>     1.0800     0.6304    11.9256 </r>
       <r>     1.1637     0.6363    11.9789 </r>
       <r>     1.2474     0.0312    11.9815 </r>
       <r>     1.3310     0.0002    11.9815 </r>
       <r>     1.4147     0.1005    11.9899 </r>
       <r>     1.4984     0.6514    12.0444 </r>
       <r>     1.5821     0.6075    12.0952 </r>
       <r>     1.6657     0.1990    12.1119 </r>
       <r>     1.7494     1.3196    12.2223 </r>
       <r>     1.8331     0.5463    12.2680 </r>
       <r>     1.9168     0.0342    12.2709 </r>
       <r>     2.0004     0.4635    12.3097 </r>
       <r>     2.0841     0.1786    12.3246 </r>
       <r>     2.1678     0.6367    12.3779 </r>
       <r>     2.2515     1.2715    12.4843 </r>
       <r>     2.3351     0.0876    12.4916 </r>
       <r>     2.4188     0.5281    12.5358 </r>
       <r>     2.5025     0.7602    12.5994 </r>
       <r>     2.5862     0.3692    12.6303 </r>
       <r>     2.6698     0.8125    12.6983 </r>
       <r>     2.7535     0.2514    12.7193 </r>
       <r>     2.8372     0.3768    12.7508 </r>
       <r>     2.9209     0.6971    12.8092 </r>
       <r>     3.0045     0.8923    12.8838 </r>
       <r>     3.0882     0.4244    12.9194 </r>
       <r>     3.1719     0.2051    12.9365 </r>
       <r>     3.2556     0.5315    12.9810 </r>
       <r>     3.3392     0.4438    13.0181 </r>
       <r>     3.4229     0.2348    13.0378 </r>
       <r>     3.5066     0.3455    13.0667 </r>
       <r>     3.5903     0.7459    13.1291 </r>
       <r>     3.6739     1.1469    13.2251 </r>
       <r>     3.7576     0.7951    13.2916 </r>
       <r>     3.8413     0.2917    13.3160 </r>
       <r>     3.9250     0.4131    13.3506 </r>
       <r>     4.0086     0.0626    13.3558 </r>
       <r>     4.0923     0.6810    13.4128 </r>
       <r>     4.1760     0.5844    13.4617 </r>
       <r>     4.2597     0.2532    13.4829 </r>
       <r>     4.3433     0.6679    13.5388 </r>
       <r>     4.4270     0.4294    13.5747 </r>
       <r>     4.5107     0.6450    13.6287 </r>
       <r>     4.5944     0.4698    13.6680 </r>
       <r>     4.6780     0.4457    13.7053 </r>
       <r>     4.7617     0.7155    13.7651 </r>
       <r>     4.8454     0.4682    13.8043 </r>
       <r>     4.9291     0.9412    13.8831 </r>
       <r>     5.0127     0.3935    13.9160 </r>
       <r>     5.0964     0.2131    13.9338 </r>
       <r>     5.1801     0.5849    13.9828 </r>
       <r>     5.2638     0.5160    14.0259 </r>
       <r>     5.3474     0.2971    14.0508 </r>
       <r>     5.4311     0.0888    14.0582 </r>
       <r>     5.5148     0.6387    14.1117 </r>
       <r>     5.5985     0.7404    14.1736 </r>
       <r>     5.6821     0.3662    14.2043 </r>
       <r>     5.7658     0.5169    14.2475 </r>
       <r>     5.8495     0.1589    14.2608 </r>
       <r>     5.9332     0.4882    14.3017 </r>
       <r>     6.0168     1.1723    14.3997 </r>
       <r>     6.1005     1.0369    14.4865 </r>
       <r>     6.1842     0.8869    14.5607 </r>
       <r>     6.2679     0.5855    14.6097 </r>
       <r>     6.3515     0.2515    14.6308 </r>
       <r>     6.4352     0.0966    14.6388 </r>
       <r>     6.5189     0.0224    14.6407 </r>
       <r>     6.6026     0.4458    14.6780 </r>
       <r>     6.6862     0.3571    14.7079 </r>
       <r>     6.7699     0.6548    14.7627 </r>
       <r>     6.8536     0.9758    14.8443 </r>
       <r>     6.9373     0.2336    14.8639 </r>
       <r>     7.0209     0.9733    14.9453 </r>
       <r>     7.1046     0.2210    14.9638 </r>
       <r>     7.1883     0.3848    14.9960 </r>
       <r>     7.2720     0.2948    15.0207 </r>
       <r>     7.3556     0.9040    15.0963 </r>
       <r>     7.4393     1.1362    15.1914 </r>
       <r>     7.5230     0.3798    15.2232 </r>
       <r>     7.6067     0.1764    15.2379 </r>
       <r>     7.6903     0.0334    15.2407 </r>
       <r>     7.7740     0.0361    15.2438 </r>
       <r>     7.8577     0.4382    15.2804 </r>
       <r>     7.9414     0.7715    15.3450 </r>
       <r>     8.0250     1.2646    15.4508 </r>
       <r>     8.1087     0.8959    15.5257 </r>
       <r>     8.1924     0.3558    15.5555 </r>
       <r>     8.2761     1.1656    15.6530 </r>
       <r>     8.3597     0.8070    15.7206 </r>
       <r>     8.4434     1.0285    15.8066 </r>
       <r>     8.5271     0.2105    15.8242 </r>
       <r>     8.6108     0.1597    15.8376 </r>
       <r>     8.6944     0.4462    15.8749 </r>
       <r>     8.7781     0.9317    15.9529 </r>
       <r>     8.8618     0.9948    16.0361 </r>
       <r>     8.9455     0.6322    16.0890 </r>
       <r>     9.0291     0.8496    16.1601 </r>
       <r>     9.1128     0.8978    16.2353 </r>
       <r>     9.1965     0.6131    16.2866 </r>
       <r>     9.2802     0.2353    16.3063 </r>
       <r>     9.3638     0.4928    16.3475 </r>
       <r>     9.4475     1.9879    16.5138 </r>
       <r>     9.5312     0.6904    16.5716 </r>
       <r>     9.6149     0.5129    16.6145 </r>
       <r>     9.6985     0.8139    16.6826 </r>
       <r>     9.7822     0.2866    16.7066 </r>
       <r>     9.8659     0.6733    16.7629 </r>
       <r>     9.9496     0.2861    16.7869 </r>
       <r>    10.0332     0.0413    16.7903 </r>
       <r>    10.1169     0.5013    16.8323 </r>
       <r>    10.2006     0.7287    16.8933 </r>
       <r>    10.2843     1.0461    16.9808 </r>
       <r>    10.3679     0.6681    17.0367 </r>
       <r>    10.4516     0.5362    17.0816 </r>
       <r>    10.5353     0.3818    17.1135 </r>
       <r>    10.6190     0.1989    17.1302 </r>
       <r>    10.7026     1.2222    17.2324 </r>
       <r>    10.7863     1.9066    17.3920 </r>
       <r>    10.8700     0.4430    17.4290 </r>
       <r>    10.9537     0.7261    17.4898 </r>
       <r>    11.0373     0.6708    17.5459 </r>
       <r>    11.1210     0.7579    17.6093 </r>
       <r>    11.2047     0.5600    17.6562 </r>
       <r>    11.2884     0.0493    17.6603 </r>
       <r>    11.3720     0.5701    17.7080 </r>
       <r>    11.4557     1.1644    17.8054 </r>
       <r>    11.5394     0.8878    17.8797 </r>
       <r>    11.6231     0.6130    17.9310 </r>
       <r>    11.7067     0.5011    17.9729 </r>
       <r>    11.7904     0.5788    18.0214 </r>
       <r>    11.8741     0.6247    18.0736 </r>
       <r>    11.9578     0.7604    18.1373 </r>
       <r>    12.0414     0.2911    18.1616 </r>
       <r>    12.1251     0.5014    18.2036 </r>
       <r>    12.2088     0.1139    18.2131 </r>
       <r>    12.2925     0.3812    18.2450 </r>
       <r>    12.3761     1.1678    18.3427 </r>
       <r>    12.4598     0.1765    18.3575 </r>
       <r>    12.5435     0.4503    18.3952 </r>
       <r>    12.6272     0.6211    18.4471 </r>
       <r>    12.7108     1.3059    18.5564 </r>
       <r>    12.7945     0.5032    18.5985 </r>
       <r>    12.8782     0.0433    18.6021 </r>
       <r>    12.9619     0.2800    18.6256 </r>
       <r>    13.0455     0.4499    18.6632 </r>
       <r>    13.1292     0.4577    18.7015 </r>
       <r>    13.2129     0.5001    18.7434 </r>
       <r>    13.2966     1.0093    18.8278 </r>
       <r>    13.3802     0.6881    18.8854 </r>
       <r>    13.4639     0.3015    18.9106 </r>
       <r>    13.5476     0.5695    18.9583 </r>
       <r>    13.6313     0.9664    19.0391 </r>
       <r>    13.7149     0.1810    19.0543 </r>
       <r>    13.7986     0.0154    19.0556 </r>
       <r>    13.8823     0.0996    19.0639 </r>
       <r>    13.9660     0.6718    19.1201 </r>
       <r>    14.0496     0.6009    19.1704 </r>
       <r>    14.1333     0.0685    19.1761 </r>
       <r>    14.2170     0.1588    19.1894 </r>
       <r>    14.3007     0.3022    19.2147 </r>
       <r>    14.3843     0.4919    19.2559 </r>
       <r>    14.4680     0.1474    19.2682 </r>
       <r>    14.5517     0.2791    19.2915 </r>
       <r>    14.6354     0.7621    19.3553 </r>
       <r>    14.7190     1.2051    19.4562 </r>
       <r>    14.8027     0.8881    19.5305 </r>
       <r>    14.8864     0.2941    19.5551 </r>
       <r>    14.9701     0.3371    19.5833 </r>
       <r>    15.0537     0.6632    19.6388 </r>
       <r>    15.1374     0.2971    19.6636 </r>
       <r>    15.2211     0.1610    19.6771 </r>
       <r>    15.3048     0.2382    19.6970 </r>
       <r>    15.3884     0.1526    19.7098 </r>
       <r>    15.4721     0.6165    19.7614 </r>
       <r>    15.5558     0.4291    19.7973 </r>
       <r>    15.6395     0.4993    19.8391 </r>
       <r>    15.7232     0.1464    19.8513 </r>
       <r>    15.8068     0.2177    19.8695 </r>
       <r>    15.8905     0.0099    19.8704 </r>
       <r>    15.9742     0.0000    19.8704 </r>
       <r>    16.0579     0.0000    19.8704 </r>
       <r>    16.1415     0.0000    19.8704 </r>
       <r>    16.2252     0.0000    19.8704 </r>
       <r>    16.3089     0.0343    19.8732 </r>
       <r>    16.3926     0.4620    19.9119 </r>
       <r>    16.4762     0.2330    19.9314 </r>
       <r>    16.5599     0.2455    19.9519 </r>
       <r>    16.6436     0.0211    19.9537 </r>
       <r>    16.7273     0.0001    19.9537 </r>
       <r>    16.8109     0.0200    19.9554 </r>
       <r>    16.8946     0.0826    19.9623 </r>
       <r>    16.9783     0.0143    19.9635 </r>
       <r>    17.0620     0.0804    19.9702 </r>
       <r>    17.1456     0.0241    19.9722 </r>
       <r>    17.2293     0.0645    19.9776 </r>
       <r>    17.3130     0.2454    19.9982 </r>
       <r>    17.3967     0.0219    20.0000 </r>
       <r>    17.4803     0.0000    20.0000 </r>
       <r>    17.5640     0.0000    20.0000 </r>
       <r>    17.6477     0.0000    20.0000 </r>
       <r>    17.7314     0.0000    20.0000 </r>
       <r>    17.8150     0.0000    20.0000 </r>
       <r>    17.8987     0.0000    20.0000 </r>
       <r>    17.9824     0.0000    20.0000 </r>
       <r>    18.0661     0.0000    20.0000 </r>
       <r>    18.1497     0.0000    20.0000 </r>
       <r>    18.2334     0.0000    20.0000 </r>
       <r>    18.3171     0.0000    20.0000 </r>
       <r>    18.4008     0.0000    20.0000 </r>
      </set>
     </set>
    </array>
   </total>
  </dos>
 </calculation>
 <structure name="finalpos" >
  <crystal>
   <varray name="basis" >
    <v>       3.00000000       0.00000000       0.00000000 </v>
    <v>       0.00000000       3.00000000       0.00000000 </v>
    <v>       0.00000000       0.00000000       3.00000000 </v>
   </varray>
   <i name="volume">     27.00000000 </i>
   <varray name="rec_basis" >
    <v>       0.33333333       0.00000000       0.00000000 </v>
    <v>       0.00000000       0.33333333       0.00000000 </v>
    <v>       0.00000000       0.00000000       0.33333333 </v>
   </varray>
  </crystal>
  <varray name="positions" >
   <v>       0.00000000       0.00000000       0.00000000 </v>
  </varray>
 </structure>
</modeling>
