sc Cu                                   
           1
     3.000000    0.000000    0.000000
     0.000000    3.000000    0.000000
     0.000000    0.000000    3.000000
   Cu
     1
Direct configuration=     1
   0.00000000  0.00000000  0.00000000
