sc Cu                                   
   2.80000000000000     
     0.866000   -0.500000    0.000000
     0.000000    1.000000    0.000000
     0.000000    0.000000    1.740000
   Cu
     2
Direct
  0.000000  0.000000  0.000000
  0.666700  0.333300  0.500000
 
   24   24   40
  498.22      471.57      399.41      301.45      200.77      115.97      57.065      24.902      12.621      8.9990    
  6.9664      5.8521      5.4860      5.8521      6.9664      8.9990      12.621      24.902      57.065      115.97    
  200.77      301.45      399.41      471.57      471.57      471.53      422.18      337.59      239.44      148.58    
  79.104      36.149      16.384      10.313      7.7716      6.2700      5.5593      5.5612      6.2725      7.7708    
  10.310      16.381      36.139      79.082      148.56      239.46      337.66      422.26      399.41      422.18    
  399.35      337.60      253.75      167.76      95.904      46.881      21.033      11.657      8.5572      6.7040    
  5.7058      5.3826      5.7071      6.7040      8.5568      11.659      21.032      46.864      95.872      167.74    
  253.77      337.65      301.44      337.58      337.60      301.48      239.50      167.78      102.18      53.426    
  24.941      13.029      9.2313      7.0920      5.8681      5.3013      5.3009      5.8669      7.0911      9.2341    
  13.037      24.949      53.423      102.15      167.74      239.45      200.76      239.42      253.74      239.49    
  200.85      148.61      95.878      53.401      26.461      13.950      9.6992      7.3873      5.9978      5.2721    
  5.0417      5.2719      5.9964      7.3843      9.6983      13.959      26.483      53.422      95.869      148.56    
  115.96      148.55      167.73      167.75      148.60      115.98      79.057      46.825      24.927      13.963    
  9.8785      7.5521      6.0746      5.2562      4.8890      4.8891      5.2567      6.0727      7.5430      9.8647    
  13.959      24.948      46.861      79.077      57.059      79.066      95.848      102.12      95.825      79.024    
  57.012      36.107      21.035      13.065      9.7263      7.5550      6.0960      5.2419      4.8050      4.6690    
  4.8047      5.2442      6.0968      7.5430      9.6981      13.036      21.030      36.135      24.899      36.103    
  46.804      53.334      53.310      46.751      36.064      24.904      16.421      11.706      9.2602      7.3844    
  6.0610      5.2361      4.7756      4.5693      4.5682      4.7762      5.2441      6.0726      7.3841      9.2337    
  11.658      16.379      12.620      16.335      20.944      24.826      26.338      24.814      20.948      16.374    
  12.678      10.349      8.5578      7.0659      5.9713      5.2457      4.8048      4.5707      4.4965      4.5682    
  4.8046      5.2565      5.9962      7.0907      8.5564      10.310      8.9984      10.264      11.565      12.905    
  13.809      13.821      12.942      11.615      10.302      8.9991      7.7344      6.6588      5.8423      5.2730    
  4.8999      4.6756      4.5706      4.5692      4.6689      4.8889      5.2717      5.8666      6.7036      7.7703    
  6.9659      7.7240      8.4665      9.1057      9.5508      9.7223      9.5781      9.1349      8.4674      7.6872    
  6.9116      6.2346      5.7057      5.3263      5.0681      4.8999      4.8047      4.7754      4.8048      4.8887    
  5.0414      5.3005      5.7067      6.2720      5.8517      6.2231      6.6145      6.9674      7.2378      7.3897    
  7.3926      7.2350      6.9415      6.5696      6.1880      5.8532      5.5970      5.4261      5.3263      5.2729    
  5.2456      5.2359      5.2417      5.2560      5.2718      5.3009      5.3822      5.5608      5.4855      5.5127    
  5.6174      5.7455      5.8503      5.9122      5.9286      5.8986      5.8239      5.7198      5.6175      5.5508    
  5.5419      5.5970      5.7056      5.8422      5.9712      6.0608      6.0957      6.0743      5.9974      5.8677    
  5.7054      5.5589      5.8517      5.5146      5.2946      5.1799      5.1270      5.0966      5.0756      5.0698    
  5.0861      5.1280      5.2052      5.3384      5.5508      5.8532      6.2346      6.6587      7.0657      7.3841    
  7.5545      7.5517      7.3868      7.0915      6.7035      6.2695      6.9659      6.2256      5.6187      5.1795    
  4.8976      4.7316      4.6415      4.6104      4.6413      4.7427      4.9242      5.2052      5.6176      6.1881    
  6.9117      7.7343      8.5576      9.2599      9.7258      9.8779      9.6985      9.2306      8.5565      7.7710    
  8.9984      7.7233      6.6146      5.7443      5.1269      4.7318      4.5069      4.4062      4.4076      4.5136    
  4.7428      5.1281      5.7199      6.5697      7.6873      8.9991      10.349      11.705      13.064      13.961    
  13.949      13.027      11.656      10.312      12.620      10.262      8.4663      6.9667      5.8491      5.0971    
  4.6413      4.4051      4.3340      4.4076      4.6414      5.0862      5.8240      6.9417      8.4676      10.302    
  12.678      16.421      21.033      24.925      26.457      24.937      21.030      16.381      24.899      16.333    
  11.568      9.1088      7.2351      5.9105      5.0780      4.6112      4.4052      4.4063      4.6106      5.0700    
  5.8989      7.2354      9.1353      11.616      16.375      24.904      36.106      46.822      53.396      53.420    
  46.875      36.144      57.059      36.094      20.944      12.914      9.5505      7.3810      5.9297      5.0780    
  4.6414      4.5071      4.6417      5.0758      5.9290      7.3930      9.5786      12.942      20.949      36.066    
  57.012      79.055      95.872      102.17      95.895      79.097      115.96      79.047      46.791      24.837    
  13.819      9.7091      7.3811      5.9106      5.0973      4.7320      4.7319      5.0969      5.9126      7.3902    
  9.7230      13.823      24.816      46.754      79.027      115.98      148.61      167.78      167.75      148.57    
  200.76      148.54      95.822      53.336      26.364      13.820      9.5507      7.2353      5.8493      5.1271    
  4.8979      5.1274      5.8507      7.2383      9.5516      13.810      26.341      53.315      95.831      148.60    
  200.85      239.49      253.74      239.43      301.44      239.45      167.72      102.10      53.338      24.838    
  12.914      9.1092      6.9670      5.7446      5.1799      5.1803      5.7459      6.9680      9.1064      12.906    
  24.830      53.340      102.13      167.76      239.49      301.48      337.59      337.58      399.41      337.66    
  253.76      167.72      95.825      46.793      20.946      11.569      8.4668      6.6150      5.6191      5.2950    
  5.6179      6.6150      8.4672      11.567      20.947      46.810      95.857      167.74      253.74      337.60    
  399.35      422.17      471.57      422.27      337.66      239.45      148.55      79.052      36.097      16.334    
  10.263      7.7238      6.2260      5.5151      5.5132      6.2236      7.7246      10.265      16.337      36.108    
  79.074      148.56      239.43      337.59      422.18      471.53      469.28      444.14      376.01      283.46    
  188.33      108.37      53.151      23.366      12.210      8.8035      6.8380      5.7678      5.4176      5.7678    
  6.8380      8.8035      12.210      23.366      53.151      108.37      188.33      283.46      376.01      444.14    
  444.13      444.10      397.52      317.61      224.86      139.09      73.757      33.725      15.610      10.084    
  7.6185      6.1721      5.4915      5.4933      6.1745      7.6176      10.081      15.607      33.716      73.736    
  139.07      224.88      317.68      397.60      376.01      397.51      375.96      317.62      238.39      157.18    
  89.516      43.678      19.836      11.341      8.3829      6.5938      5.6361      5.3273      5.6373      6.5938    
  8.3825      11.343      19.835      43.662      89.487      157.16      238.40      317.68      283.45      317.60    
  317.62      283.49      224.92      157.20      95.411      49.769      23.410      12.587      9.0410      6.9730    
  5.7973      5.2556      5.2552      5.7961      6.9721      9.0436      12.595      23.418      49.766      95.389    
  157.16      224.88      188.33      224.84      238.37      224.91      188.41      139.12      89.492      49.745    
  24.805      13.420      9.4985      7.2631      5.9281      5.2348      5.0155      5.2346      5.9269      7.2604    
  9.4977      13.428      24.826      49.765      89.484      139.07      108.36      139.06      157.14      157.16    
  139.09      108.38      73.713      43.626      23.398      13.431      9.6735      7.4254      6.0072      5.2263    
  4.8778      4.8780      5.2267      6.0056      7.4170      9.6606      13.428      23.417      43.660      73.731    
  53.146      73.713      89.451      95.339      89.430      73.674      53.102      33.687      19.838      12.620    
  9.5237      7.4280      6.0300      5.2170      4.8040      4.6761      4.8036      5.2190      6.0308      7.4170    
  9.4975      12.594      19.834      33.713      23.363      33.674      43.591      49.665      49.642      43.542    
  33.639      23.368      15.645      11.387      9.0678      7.2605      5.9948      5.2116      4.7783      4.5859    
  4.5849      4.7788      5.2189      6.0054      7.2602      9.0432      11.343      15.606      12.209      15.557    
  19.739      23.284      24.669      23.273      19.742      15.593      12.263      10.118      8.3833      6.9488    
  5.9036      5.2166      4.8036      4.5871      4.5190      4.5848      4.8035      5.2266      5.9267      6.9718    
  8.3820      10.081      8.8028      10.031      11.241      12.451      13.264      13.275      12.485      11.288    
  10.066      8.8035      7.5836      6.5517      5.7733      5.2356      4.8879      4.6820      4.5870      4.5858    
  4.6760      4.8778      5.2344      5.7958      6.5934      7.6171      6.8375      7.5661      8.2825      8.9011    
  9.3324      9.4982      9.3577      8.9282      8.2833      7.5318      6.7870      6.1392      5.6359      5.2789    
  5.0400      4.8878      4.8036      4.7781      4.8038      4.8776      5.0152      5.2549      5.6369      6.1741    
  5.7673      6.1199      6.4933      6.8312      7.0909      7.2369      7.2396      7.0884      6.8071      6.4514    
  6.0873      5.7687      5.5266      5.3677      5.2788      5.2355      5.2164      5.2114      5.2167      5.2260    
  5.2344      5.2552      5.3269      5.4929      5.4171      5.4393      5.5353      5.6542      5.7521      5.8101    
  5.8257      5.7977      5.7276      5.6304      5.5354      5.4747      5.4697      5.5265      5.6359      5.7732    
  5.9035      5.9945      6.0297      6.0069      5.9277      5.7969      5.6357      5.4911      5.7673      5.4411    
  5.2264      5.1118      5.0564      5.0237      5.0019      4.9966      5.0141      5.0574      5.1353      5.2671    
  5.4747      5.7687      6.1391      6.5516      6.9486      7.2602      7.4276      7.4249      7.2626      6.9725    
  6.5933      6.1716      6.8375      6.1223      5.5366      5.1115      4.8364      4.6725      4.5827      4.5516    
  4.5824      4.6827      4.8610      5.1353      5.5354      6.0874      6.7870      7.5836      8.3831      9.0675    
  9.5232      9.6728      9.4978      9.0403      8.3822      7.6179      8.8028      7.5654      6.4933      5.6531    
  5.0563      4.6727      4.4528      4.3535      4.3547      4.4588      4.6827      5.0575      5.6305      6.4515    
  7.5318      8.8035      10.118      11.387      12.620      13.430      13.418      12.586      11.340      10.083    
  12.209      10.029      8.2823      6.8305      5.7510      5.0243      4.5824      4.3525      4.2830      4.3548    
  4.5825      5.0142      5.7278      6.8073      8.2835      10.066      12.263      15.645      19.837      23.396    
  24.802      23.407      19.833      15.608      23.363      15.555      11.244      8.9040      7.0884      5.8087    
  5.0041      4.5522      4.3526      4.3536      4.5518      4.9968      5.7979      7.0887      8.9286      11.288    
  15.594      23.368      33.685      43.623      49.741      49.763      43.672      33.721      53.146      33.667    
  19.739      12.459      9.3321      7.2290      5.8268      5.0041      4.5825      4.4529      4.5829      5.0022    
  5.8260      7.2400      9.3582      12.486      19.744      33.640      53.102      73.710      89.487      95.404    
  89.508      73.749      108.36      73.695      43.579      23.294      13.273      9.4859      7.2290      5.8088    
  5.0244      4.6729      4.6727      5.0240      5.8105      7.2374      9.4988      13.277      23.275      43.545    
  73.676      108.38      139.12      157.19      157.17      139.08      188.33      139.04      89.426      49.667    
  24.693      13.274      9.3323      7.0886      5.7512      5.0566      4.8367      5.0568      5.7525      7.0914    
  9.3331      13.265      24.672      49.647      89.435      139.10      188.41      224.92      238.38      224.85    
  283.45      224.87      157.13      95.325      49.668      23.295      12.460      8.9044      6.8308      5.6535    
  5.1118      5.1122      5.6547      6.8317      8.9019      12.452      23.287      49.670      95.347      157.17    
  224.91      283.49      317.62      317.61      376.01      317.67      238.39      157.13      89.429      43.582    
  19.741      11.244      8.2828      6.4937      5.5369      5.2268      5.5358      6.4938      8.2832      11.242    
  19.742      43.597      89.459      157.15      238.37      317.62      375.96      397.51      444.13      397.60    
  317.68      224.87      139.05      73.700      33.670      15.556      10.030      7.5659      6.1228      5.4415    
  5.4397      6.1204      7.5667      10.032      15.559      33.679      73.721      139.07      224.85      317.61    
  397.52      444.10      391.58      370.43      313.07      235.04      154.94      88.140      42.929      19.492    
  11.183      8.2535      6.4791      5.5300      5.2232      5.5300      6.4792      8.2535      11.183      19.492    
  42.929      88.140      154.94      235.04      313.07      370.43      370.43      370.40      331.19      263.84    
  185.66      113.70      59.651      27.506      13.701      9.4353      7.1882      5.8953      5.2961      5.2977    
  5.8974      7.1875      9.4333      13.699      27.499      59.635      113.69      185.68      263.90      331.26    
  313.07      331.19      313.03      263.85      197.06      128.83      72.585      35.370      16.847      10.530    
  7.8891      6.2787      5.4301      5.1596      5.4312      6.2786      7.8886      10.532      16.846      35.358    
  72.561      128.82      197.07      263.90      235.03      263.83      263.84      235.06      185.71      128.85    
  77.446      40.239      19.552      11.490      8.4970      6.6275      5.5798      5.1033      5.1030      5.5788    
  6.6267      8.4990      11.496      19.558      40.237      77.428      128.81      185.67      154.93      185.63    
  197.02      185.68      155.00      113.73      72.565      40.220      20.617      12.110      8.9208      6.8968    
  5.7040      5.0915      4.8996      5.0914      5.7032      6.8948      8.9201      12.117      20.634      40.236    
  72.559      113.68      88.134      113.66      128.77      128.78      113.69      88.147      59.616      35.329    
  19.542      12.119      9.0816      7.0478      5.7816      5.0904      4.7849      4.7850      5.0908      5.7805    
  7.0415      9.0715      12.116      19.558      35.356      59.631      42.925      59.594      72.492      77.343    
  72.476      59.562      42.889      27.475      16.848      11.516      8.9408      7.0500      5.8053      5.0866    
  4.7246      4.6133      4.7241      5.0881      5.8060      7.0414      8.9200      11.495      16.845      27.496    
  19.490      27.442      35.259      40.102      40.084      35.220      27.414      19.494      13.729      10.567    
  8.5182      6.8948      5.7720      5.0825      4.7037      4.5371      4.5361      4.7039      5.0881      5.7804    
  6.8946      8.4986      10.531      13.698      11.182      13.636      16.727      19.395      20.447      19.385    
  16.730      13.666      11.226      9.4628      7.8892      6.6080      5.6847      5.0828      4.7240      4.5377    
  4.4798      4.5361      4.7240      5.0906      5.7030      6.6264      7.8881      9.4327      8.2529      9.3716    
  10.409      11.323      11.918      11.927      11.350      10.446      9.3996      8.2534      7.1600      6.2448    
  5.5606      5.0922      4.7925      4.6175      4.5377      4.5370      4.6132      4.7848      5.0912      5.5786    
  6.2783      7.1870      6.4787      7.1246      7.7663      8.3246      8.7151      8.8642      8.7352      8.3462    
  7.7668      7.0968      6.4379      5.8687      5.4299      5.1217      4.9189      4.7925      4.7239      4.7036    
  4.7244      4.7846      4.8993      5.1027      5.4308      5.8970      5.5296      5.8314      6.1545      6.4503    
  6.6796      6.8090      6.8113      6.6777      6.4310      6.1209      5.8052      5.5308      5.3243      5.1918    
  5.1217      5.0921      5.0827      5.0823      5.0864      5.0901      5.0912      5.1029      5.1593      5.2973    
  5.2228      5.2319      5.3045      5.3983      5.4769      5.5243      5.5374      5.5147      5.4577      5.3792    
  5.3045      5.2605      5.2653      5.3243      5.4298      5.5605      5.6846      5.7718      5.8050      5.7813    
  5.7037      5.5794      5.4297      5.2957      5.5296      5.2335      5.0333      4.9189      4.8570      4.8183    
  4.7944      4.7903      4.8109      4.8578      4.9376      5.0658      5.2605      5.5308      5.8687      6.2447    
  6.6078      6.8945      7.0497      7.0474      6.8963      6.6270      6.2782      5.8948      6.4787      5.8335    
  5.3055      4.9186      4.6623      4.5044      4.4156      4.3848      4.4151      4.5123      4.6819      4.9377    
  5.3045      5.8053      6.4379      7.1600      7.8890      8.5179      8.9403      9.0811      8.9201      8.4964    
  7.8885      7.1877      8.2529      7.1239      6.1545      5.3974      4.8569      4.5045      4.2983      4.2034    
  4.2041      4.3026      4.5123      4.8579      5.3793      6.1210      7.0969      8.2534      9.4627      10.567    
  11.516      12.118      12.109      11.489      10.530      9.4346      11.182      9.3696      7.7659      6.4497    
  5.4762      4.8188      4.4151      4.2025      4.1374      4.2042      4.4152      4.8110      5.4579      6.4312    
  7.7669      9.3998      11.226      13.729      16.847      19.540      20.615      19.550      16.845      13.699    
  19.490      13.635      10.410      8.3269      6.6778      5.5234      4.7960      4.3850      4.2025      4.2035    
  4.3849      4.7905      5.5150      6.6780      8.3465      10.446      13.666      19.494      27.474      35.326    
  40.216      40.234      35.365      27.502      42.925      27.436      16.728      11.329      8.7148      6.8030    
  5.5384      4.7961      4.4152      4.2984      4.4158      4.7946      5.5377      6.8116      8.7357      11.350    
  16.731      27.415      42.890      59.614      72.561      77.440      72.578      59.645      88.134      59.580    
  35.249      19.403      11.926      8.8545      6.8030      5.5235      4.8190      4.5047      4.5046      4.8186    
  5.5247      6.8095      8.8648      11.928      19.387      35.222      59.564      88.147      113.72      128.84    
  128.82      113.69      154.93      113.64      72.473      40.104      20.465      11.926      8.7150      6.6780    
  5.4764      4.8572      4.6625      4.8573      5.4773      6.6801      8.7157      11.919      20.449      40.088    
  72.480      113.69      155.00      185.71      197.05      185.66      235.03      185.65      128.76      77.331    
  40.104      19.403      11.330      8.3272      6.4500      5.3977      4.9189      4.9193      5.3987      6.4508    
  8.3253      11.324      19.397      40.107      77.349      128.79      185.69      235.06      263.85      263.84    
  313.07      263.89      197.04      128.76      72.475      35.251      16.729      10.411      7.7663      6.1549    
  5.3059      5.0337      5.3049      6.1550      7.7670      10.409      16.729      35.263      72.499      128.77    
  197.03      263.84      313.03      331.19      370.43      331.25      263.89      185.66      113.65      59.584    
  27.439      13.636      9.3702      7.1244      5.8339      5.2339      5.2323      5.8319      7.1252      9.3723    
  13.638      27.446      59.600      113.66      185.64      263.83      331.19      370.40      287.84      271.97    
  228.89      170.34      110.67      61.894      30.234      15.023      9.9165      7.4507      5.9602      5.1810    
  4.9334      5.1810      5.9603      7.4507      9.9166      15.023      30.234      61.894      110.67      170.34    
  228.89      271.97      271.97      271.95      242.50      191.94      133.49      80.400      41.738      20.069    
  11.554      8.4746      6.5634      5.4893      5.0017      5.0030      5.4910      6.5627      8.4729      11.554    
  20.066      41.728      80.391      133.50      191.98      242.55      228.89      242.49      228.86      191.95    
  141.98      91.472      50.836      25.211      13.455      9.4289      7.1646      5.8130      5.1138      4.8943    
  5.1147      5.8129      7.1639      9.4298      13.455      25.203      50.820      91.460      141.99      191.98    
  170.34      191.92      191.92      170.36      133.52      91.482      54.290      28.463      15.105      10.171    
  7.6894      6.1095      5.2360      4.8442      4.8439      5.2353      6.1089      7.6906      10.175      15.109    
  28.461      54.277      91.459      133.49      110.67      133.44      141.92      133.48      110.72      80.418    
  50.823      28.450      15.761      10.592      8.0556      6.3396      5.3375      4.8260      4.6670      4.8260    
  5.3371      6.3384      8.0551      10.597      15.772      28.461      50.818      80.387      61.890      80.338    
  91.378      91.389      80.359      61.898      41.714      25.183      15.097      10.599      8.1931      6.4686    
  5.4016      4.8169      4.5585      4.5585      4.8172      5.4012      6.4646      8.1863      10.597      15.108    
  25.202      41.725      30.231      41.663      50.711      54.148      50.700      41.642      30.207      20.048    
  13.456      10.189      8.0691      6.4702      5.4220      4.8097      4.4970      4.4003      4.4963      4.8105    
  5.4226      6.4646      8.0550      10.175      13.454      20.064      15.022      19.989      25.068      28.285    
  28.273      25.041      19.970      15.025      11.574      9.4536      7.7036      6.3384      5.3956      4.8070    
  4.4753      4.3264      4.3256      4.4750      4.8104      5.4011      6.3383      7.6903      9.4293      11.553    
  9.9159      11.474      13.305      14.906      15.546      14.900      13.306      11.495      9.9466      8.4933    
  7.1643      6.0961      5.3248      4.8121      4.4962      4.3265      4.2728      4.3256      4.4962      4.8171    
  5.3369      6.1086      7.1636      8.4724      7.4502      8.3959      9.2784      9.9646      10.356      10.362    
  9.9827      9.3035      8.4151      7.4505      6.5437      5.7897      5.2229      4.8265      4.5633      4.4025    
  4.3265      4.3263      4.4002      4.5583      4.8257      5.2350      5.8126      6.5623      5.9599      6.4859    
  7.0151      7.4801      7.8066      7.9302      7.8202      7.4946      7.0151      6.4666      5.9316      5.4711    
  5.1135      4.8566      4.6799      4.5633      4.4962      4.4752      4.4968      4.5583      4.6668      4.8437    
  5.1144      5.4907      5.1807      5.4125      5.6643      5.8990      6.0834      6.1881      6.1897      6.0823    
  5.8858      5.6412      5.3946      5.1815      5.0210      4.9160      4.8565      4.8264      4.8120      4.8069    
  4.8095      4.8167      4.8257      4.8439      4.8940      5.0026      4.9331      4.9251      4.9653      5.0244    
  5.0763      5.1087      5.1180      5.1026      5.0637      5.0115      4.9653      4.9448      4.9625      5.0210    
  5.1135      5.2229      5.3246      5.3954      5.4217      5.4014      5.3372      5.2357      5.1135      5.0013    
  5.1807      4.9264      4.7457      4.6318      4.5614      4.5154      4.4889      4.4863      4.5106      4.5622    
  4.6444      4.7678      4.9448      5.1815      5.4711      5.7896      6.0960      6.3381      6.4699      6.4682    
  6.3392      6.1090      5.8126      5.4889      5.9598      5.4142      4.9662      4.6315      4.4013      4.2524    
  4.1658      4.1356      4.1652      4.2575      4.4145      4.6445      4.9653      5.3946      5.9316      6.5437    
  7.1642      7.7033      8.0687      8.1926      8.0551      7.6888      7.1641      6.5629      7.4502      6.4852    
  5.6642      5.0238      4.5615      4.2525      4.0656      3.9770      3.9772      4.0680      4.2575      4.5622    
  5.0116      5.6413      6.4666      7.4505      8.4932      9.4534      10.188      10.598      10.592      10.170    
  9.4283      8.4740      9.9159      8.3942      7.0145      5.8985      5.0760      4.5158      4.1652      3.9763    
  3.9174      3.9773      4.1652      4.5107      5.0638      5.8859      7.0152      8.4152      9.9466      11.574    
  13.455      15.096      15.760      15.103      13.453      11.553      15.022      11.474      9.2794      7.4816    
  6.0824      5.1083      4.4898      4.1354      3.9763      3.9771      4.1357      4.4864      5.1028      6.0825    
  7.4948      9.3037      11.495      15.025      20.048      25.181      28.448      28.460      25.208      20.067    
  30.231      19.986      13.305      9.9689      7.8065      6.1843      5.1188      4.4898      4.1653      4.0657    
  4.1660      4.4891      5.1183      6.1900      7.8206      9.9831      13.307      19.971      30.207      41.712    
  50.820      54.286      50.831      41.734      61.889      41.654      25.062      14.911      10.360      7.9238    
  6.1844      5.1084      4.5159      4.2526      4.2526      4.5156      5.1089      6.1884      7.9307      10.362    
  14.901      25.042      41.643      61.898      80.416      91.477      91.467      80.395      110.67      80.330    
  50.698      28.286      15.558      10.360      7.8066      6.0826      5.0762      4.5617      4.4015      4.5617    
  5.0767      6.0838      7.8072      10.356      15.548      28.275      50.703      80.361      110.72      133.52    
  141.97      133.48      170.34      133.45      91.370      54.140      28.286      14.912      9.9692      7.4819    
  5.8988      5.0240      4.6318      4.6321      5.0248      5.8994      7.4807      9.9653      14.908      28.288    
  54.153      91.393      133.48      170.36      191.95      191.94      228.89      191.95      141.93      91.371    
  50.700      25.063      13.306      9.2798      7.0149      5.6646      4.9665      4.7461      4.9657      5.6647    
  7.0156      9.2791      13.306      25.071      50.716      91.383      141.92      191.93      228.86      242.50    
  271.97      242.54      191.96      133.46      80.334      41.657      19.988      11.474      8.3947      6.4856    
  5.4146      4.9267      4.9254      5.4129      6.4863      8.3965      11.475      19.992      41.668      80.343    
  133.45      191.92      242.50      271.95      184.09      173.51      144.86      106.25      67.699      37.474    
  19.319      11.551      8.5125      6.5372      5.3743      4.7783      4.5923      4.7783      5.3743      6.5372    
  8.5126      11.551      19.319      37.474      67.700      106.25      144.86      173.51      173.51      173.50    
  153.90      120.44      82.315      48.749      25.716      14.059      9.7424      7.3656      5.8592      5.0283    
  4.6582      4.6592      5.0296      5.8587      7.3643      9.7422      14.058      25.711      48.743      82.319    
  120.46      153.93      144.86      153.89      144.84      120.45      87.804      55.632      30.973      16.704    
  10.819      8.1468      6.3446      5.2890      4.7504      4.5838      4.7511      5.2889      6.3439      8.1471    
  10.820      16.701      30.964      55.625      87.808      120.46      106.25      120.41      120.41      106.26    
  82.333      55.637      33.005      18.429      11.656      8.7597      6.7692      5.5281      4.8461      4.5431    
  4.5429      4.8456      5.5277      6.7699      8.7618      11.658      18.427      32.997      55.624      82.317    
  67.696      82.258      87.729      82.279      67.723      48.759      30.966      18.421      11.982      9.0982    
  7.0650      5.7140      4.9248      4.5208      4.3958      4.5209      4.9247      5.7135      7.0647      9.1003    
  11.988      18.427      30.963      48.741      37.472      48.672      55.513      55.519      48.684      37.476    
  25.702      16.688      11.651      9.1015      7.1746      5.8177      4.9749      4.5053      4.2957      4.2957    
  4.5055      4.9749      5.8158      7.1707      9.1002      11.658      16.700      25.709      19.317      25.625    