sc Cu                                   
   2.80000000000000     
     0.866000   -0.500000    0.000000
     0.000000    1.000000    0.000000
     0.000000    0.000000    1.740000
   Cu
     2
Direct
  0.000000  0.000000  0.000000
  0.666700  0.333300  0.500000
 
   24   24   40
 0.49822324855E+03 0.47156758672E+03 0.39940948970E+03 0.30144708232E+03 0.20077154218E+03
 0.11597117625E+03 0.57064792971E+02 0.24902414807E+02 0.12621331179E+02 0.89990332500E+01
 0.69663787108E+01 0.58521342058E+01 0.54859933492E+01 0.58521342423E+01 0.69663818586E+01
 0.89990485115E+01 0.12621366387E+02 0.24902458040E+02 0.57064809649E+02 0.11597113685E+03
 0.20077145280E+03 0.30144698212E+03 0.39940941695E+03 0.47156755316E+03 0.47156645606E+03
 0.47152714930E+03 0.42217711152E+03 0.33758570394E+03 0.23943515947E+03 0.14858023858E+03
 0.79104369896E+02 0.36148853374E+02 0.16383505657E+02 0.10312503164E+02 0.77716366058E+01
 0.62700060759E+01 0.55593273692E+01 0.55612209091E+01 0.62724801099E+01 0.77708286319E+01
 0.10310218721E+02 0.16380886217E+02 0.36138840187E+02 0.79082152313E+02 0.14856245535E+03
 0.23945521101E+03 0.33765688005E+03 0.42226368326E+03 0.39940566269E+03 0.42217602462E+03
 0.39935436995E+03 0.33759712006E+03 0.25374739384E+03 0.16776358854E+03 0.95903621282E+02
 0.46880727961E+02 0.21032661669E+02 0.11656601201E+02 0.85572105805E+01 0.67040146635E+01
 0.57058196392E+01 0.53825878959E+01 0.57070539660E+01 0.67039756657E+01 0.85568485689E+01
 0.11658682116E+02 0.21031559272E+02 0.46864208807E+02 0.95872119897E+02 0.16774256662E+03
 0.25376697005E+03 0.33765447426E+03 0.30144045006E+03 0.33758114952E+03 0.33759501501E+03
 0.30147759876E+03 0.23949839385E+03 0.16778236992E+03 0.10217780953E+03 0.53426078674E+02
 0.24940605375E+02 0.13028518543E+02 0.92312940960E+01 0.70919999901E+01 0.58681254617E+01
 0.53012734749E+01 0.53008796711E+01 0.58668739151E+01 0.70910513979E+01 0.92340545605E+01
 0.13036872463E+02 0.24949051489E+02 0.53423223524E+02 0.10215459724E+03 0.16774043324E+03
 0.23945051223E+03 0.20076338026E+03 0.23942231031E+03 0.25373605836E+03 0.23949030582E+03
 0.20085277663E+03 0.14861498308E+03 0.95877852050E+02 0.53400805866E+02 0.26460671946E+02
 0.13950045576E+02 0.96991962812E+01 0.73872947903E+01 0.59978193456E+01 0.52721365991E+01
 0.50416875225E+01 0.52719462747E+01 0.59964445000E+01 0.73842968905E+01 0.96983448789E+01
 0.13959357542E+02 0.26483043572E+02 0.53422170730E+02 0.95869011604E+02 0.14855669569E+03
 0.11596337933E+03 0.14855487140E+03 0.16773301155E+03 0.16775392439E+03 0.14859538989E+03
 0.11598181865E+03 0.79057038735E+02 0.46825388057E+02 0.24927283794E+02 0.13962625150E+02
 0.98785367557E+01 0.75521476270E+01 0.60746183421E+01 0.52562457273E+01 0.48889526650E+01
 0.48891268319E+01 0.52566809673E+01 0.60727024005E+01 0.75430423115E+01 0.98647047977E+01
 0.13959130965E+02 0.24948001925E+02 0.46861431386E+02 0.79076914331E+02 0.57058973879E+02
 0.79066339723E+02 0.95848178738E+02 0.10211815886E+03 0.95825448007E+02 0.79024183455E+02
 0.57011963759E+02 0.36107045678E+02 0.21034753741E+02 0.13064817610E+02 0.97263083586E+01
 0.75549670862E+01 0.60959799250E+01 0.52419224224E+01 0.48050316682E+01 0.46690456613E+01
 0.48047341034E+01 0.52441510326E+01 0.60967547800E+01 0.75429597169E+01 0.96981322579E+01
 0.13036303620E+02 0.21029897069E+02 0.36135288577E+02 0.24899229583E+02 0.36102603701E+02
 0.46803809908E+02 0.53334165636E+02 0.53309894734E+02 0.46751142984E+02 0.36064260593E+02
 0.24904179638E+02 0.16421182954E+02 0.11705852241E+02 0.92601992115E+01 0.73844391338E+01
 0.60610442910E+01 0.52361288227E+01 0.47755672714E+01 0.45693172441E+01 0.45682389563E+01
 0.47762029651E+01 0.52440959243E+01 0.60725810011E+01 0.73840692127E+01 0.92336701887E+01
 0.11657995756E+02 0.16379228626E+02 0.12620163870E+02 0.16334804800E+02 0.20944147236E+02
 0.24826175016E+02 0.26337657709E+02 0.24813866369E+02 0.20947845384E+02 0.16374076350E+02
 0.12678389636E+02 0.10349478521E+02 0.85577867661E+01 0.70659168131E+01 0.59713373426E+01
 0.52456953159E+01 0.48047614032E+01 0.45706743295E+01 0.44964724397E+01 0.45681845963E+01
 0.48046254922E+01 0.52565216183E+01 0.59962185996E+01 0.70907139621E+01 0.85563504057E+01
 0.10309544399E+02 0.89983688084E+01 0.10264283131E+02 0.11565423384E+02 0.12904657073E+02
 0.13808656356E+02 0.13821468189E+02 0.12941525871E+02 0.11615322732E+02 0.10301869412E+02
 0.89990884948E+01 0.77343596551E+01 0.66588371783E+01 0.58423240432E+01 0.52730178634E+01
 0.48999281437E+01 0.46755918679E+01 0.45706295330E+01 0.45692173231E+01 0.46688866259E+01
 0.48889151791E+01 0.52716879040E+01 0.58665567823E+01 0.67035662712E+01 0.77702905546E+01
 0.69658548396E+01 0.77240165865E+01 0.84664528128E+01 0.91056719837E+01 0.95508232126E+01
 0.97223061328E+01 0.95781215796E+01 0.91348919462E+01 0.84674165668E+01 0.76871894224E+01
 0.69116454746E+01 0.62346400689E+01 0.57056682858E+01 0.53263474663E+01 0.50681041423E+01
 0.48998904201E+01 0.48046787798E+01 0.47754310128E+01 0.48048348208E+01 0.48886960954E+01
 0.50413805095E+01 0.53005315734E+01 0.57066633641E+01 0.62720316797E+01 0.58516620075E+01
 0.62230540214E+01 0.66145178741E+01 0.69674313480E+01 0.72377993055E+01 0.73897175778E+01
 0.73925671588E+01 0.72350318510E+01 0.69414998688E+01 0.65695814468E+01 0.61880468765E+01
 0.58531686161E+01 0.55969776715E+01 0.54261133963E+01 0.53263180608E+01 0.52729451267E+01
 0.52455706374E+01 0.52359478216E+01 0.52416841452E+01 0.52559526676E+01 0.52717944306E+01
 0.53008896571E+01 0.53821698059E+01 0.55607743118E+01 0.54855219247E+01 0.55127383101E+01
 0.56174153353E+01 0.57454794733E+01 0.58503113226E+01 0.59122129788E+01 0.59286265090E+01
 0.58986325165E+01 0.58238567882E+01 0.57197944481E+01 0.56175063386E+01 0.55507587356E+01
 0.55419360036E+01 0.55969674837E+01 0.57056240271E+01 0.58422237520E+01 0.59711656231E+01
 0.60607969488E+01 0.60956653732E+01 0.60742533030E+01 0.59974202809E+01 0.58677017737E+01
 0.57053743598E+01 0.55588641627E+01 0.58516655222E+01 0.55146488915E+01 0.52945927433E+01
 0.51799173090E+01 0.51270172929E+01 0.50965936621E+01 0.50755742357E+01 0.50697855957E+01
 0.50860791618E+01 0.51280059300E+01 0.52051919423E+01 0.53384087139E+01 0.55507717536E+01
 0.58531717718E+01 0.62346046394E+01 0.66587313190E+01 0.70657126482E+01 0.73841226549E+01
 0.75545458472E+01 0.75516502717E+01 0.73867606403E+01 0.70914641087E+01 0.67034976111E+01
 0.62695138096E+01 0.69658571110E+01 0.62255741926E+01 0.56186933224E+01 0.51795483196E+01
 0.48975816516E+01 0.47316052736E+01 0.46415386921E+01 0.46104150259E+01 0.46413336645E+01
 0.47427137882E+01 0.49241899448E+01 0.52052224562E+01 0.56175545077E+01 0.61880906300E+01
 0.69116516481E+01 0.77342869978E+01 0.85575942374E+01 0.92598579911E+01 0.97258133769E+01
 0.98779122200E+01 0.96984915814E+01 0.92305708782E+01 0.85565257694E+01 0.77710277342E+01
 0.89983609994E+01 0.77232806029E+01 0.66145793763E+01 0.57443082712E+01 0.51268897841E+01
 0.47318182750E+01 0.45069498615E+01 0.44061678594E+01 0.44075733439E+01 0.45136243262E+01
 0.47427528118E+01 0.51280804697E+01 0.57198985304E+01 0.65696958330E+01 0.76872768881E+01
 0.89990989544E+01 0.10349359995E+02 0.11705473405E+02 0.13064000042E+02 0.13961356819E+02
 0.13948546077E+02 0.13027118718E+02 0.11655527387E+02 0.10311711929E+02 0.12620141760E+02
 0.10262104416E+02 0.84662876979E+01 0.69666613850E+01 0.58490686400E+01 0.50971401128E+01
 0.46413267050E+01 0.44051356906E+01 0.43340240980E+01 0.44076206950E+01 0.46414202638E+01
 0.50862077077E+01 0.58240330820E+01 0.69417128806E+01 0.84676260373E+01 0.10302014973E+02
 0.12678408658E+02 0.16420722708E+02 0.21033350744E+02 0.24924744311E+02 0.26457273285E+02
 0.24937001937E+02 0.21029571730E+02 0.16381373114E+02 0.24899208984E+02 0.16332633335E+02
 0.11567914476E+02 0.91087859863E+01 0.72350713313E+01 0.59105022767E+01 0.50779861497E+01
 0.46112029486E+01 0.44051918181E+01 0.44062724181E+01 0.46105581113E+01 0.50699736574E+01
 0.58988870149E+01 0.72353592612E+01 0.91352536119E+01 0.11615735972E+02 0.16374586977E+02
 0.24904213131E+02 0.36105733754E+02 0.46822132246E+02 0.53395692247E+02 0.53419909545E+02
 0.46874677262E+02 0.36143964739E+02 0.57058989037E+02 0.36093914690E+02 0.20944489424E+02
 0.12913895209E+02 0.95504732452E+01 0.73809956733E+01 0.59297224944E+01 0.50780419375E+01
 0.46414373461E+01 0.45071136306E+01 0.46417432877E+01 0.50758218197E+01 0.59289511381E+01
 0.73930023345E+01 0.95786411553E+01 0.12942385615E+02 0.20949311533E+02 0.36065655627E+02
 0.57012013537E+02 0.79054572867E+02 0.95872471399E+02 0.10217015971E+03 0.95895135249E+02
 0.79096650833E+02 0.11596345469E+03 0.79046654716E+02 0.46790568209E+02 0.24837233378E+02
 0.13819309122E+02 0.97091086917E+01 0.73810787019E+01 0.59106248350E+01 0.50973011687E+01
 0.47320331916E+01 0.47318680554E+01 0.50968958367E+01 0.59125892969E+01 0.73902304207E+01
 0.97229570994E+01 0.13822782882E+02 0.24816477578E+02 0.46754493591E+02 0.79026759389E+02
 0.11598187666E+03 0.14861142534E+03 0.16777533295E+03 0.16775442832E+03 0.14857092454E+03
 0.20076350367E+03 0.14854078335E+03 0.95822066419E+02 0.53336452547E+02 0.26363519336E+02
 0.13819533946E+02 0.95506852850E+01 0.72353000991E+01 0.58492959651E+01 0.51271497433E+01
 0.48978922049E+01 0.51273664461E+01 0.58507206617E+01 0.72383478423E+01 0.95515518779E+01
 0.13810199127E+02 0.26341126774E+02 0.53315104193E+02 0.95830939325E+02 0.14859906022E+03
 0.20085282894E+03 0.23949420581E+03 0.25373985979E+03 0.23942628254E+03 0.30144057850E+03
 0.23944673999E+03 0.16771907001E+03 0.10210259916E+03 0.53337500558E+02 0.24838276615E+02
 0.12914459774E+02 0.91091694091E+01 0.69669992801E+01 0.57446255783E+01 0.51798974952E+01
 0.51803054461E+01 0.57459112617E+01 0.69679788311E+01 0.91064135567E+01 0.12906090507E+02
 0.24829836550E+02 0.53340418060E+02 0.10212590722E+03 0.16776106106E+03 0.23949458416E+03
 0.30147763681E+03 0.33759308846E+03 0.33757927007E+03 0.39940575595E+03 0.33765654713E+03
 0.25376327986E+03 0.16772119660E+03 0.95825163154E+02 0.46793332621E+02 0.20946141300E+02
 0.11568595319E+02 0.84667837376E+01 0.66149872542E+01 0.56190829193E+01 0.52950126042E+01
 0.56178662888E+01 0.66150436148E+01 0.84671501466E+01 0.11566519281E+02 0.20947277349E+02
 0.46809922103E+02 0.95856741084E+02 0.16774225085E+03 0.25374366432E+03 0.33759910680E+03
 0.39935439359E+03 0.42217416335E+03 0.47156650063E+03 0.42226567556E+03 0.33765894399E+03
 0.23945142294E+03 0.14854652231E+03 0.79051870561E+02 0.36097447501E+02 0.16334278656E+02
 0.10262772245E+02 0.77238147304E+01 0.62260195143E+01 0.55150946522E+01 0.55132045332E+01
 0.62235524163E+01 0.77246337358E+01 0.10265087428E+02 0.16336961321E+02 0.36107531524E+02
 0.79074110459E+02 0.14856424129E+03 0.23943123918E+03 0.33758762708E+03 0.42217900663E+03
 0.47152716071E+03 0.46928382045E+03 0.44413513923E+03 0.37601441645E+03 0.28345956216E+03
 0.18833490863E+03 0.10837153158E+03 0.53150990586E+02 0.23366063033E+02 0.12209812350E+02
 0.88034904190E+01 0.68379992390E+01 0.57677539853E+01 0.54175866580E+01 0.57677563125E+01
 0.68380056901E+01 0.88035085317E+01 0.12209849428E+02 0.23366108005E+02 0.53151010288E+02
 0.10837149776E+03 0.18833482799E+03 0.28345947306E+03 0.37601435452E+03 0.44413511249E+03
 0.44413407169E+03 0.44409738049E+03 0.39751560429E+03 0.31761241567E+03 0.22486127935E+03
 0.13908816182E+03 0.73756710506E+02 0.33725449284E+02 0.15609798643E+02 0.10083555169E+02
 0.76184503097E+01 0.61721171711E+01 0.54915047207E+01 0.54933257768E+01 0.61744918724E+01
 0.76176477206E+01 0.10081336915E+02 0.15607455161E+02 0.33716405007E+02 0.73736225392E+02
 0.13907153352E+03 0.22487974135E+03 0.31767862328E+03 0.39759633833E+03 0.37601079021E+03
 0.39751319851E+03 0.37596308005E+03 0.31762310777E+03 0.23838633048E+03 0.15718324013E+03
 0.89516384613E+02 0.43677514169E+02 0.19836092703E+02 0.11341255652E+02 0.83828905170E+01
 0.65938196910E+01 0.56361373382E+01 0.53273390815E+01 0.56373243462E+01 0.65937671691E+01
 0.83824622750E+01 0.11343163999E+02 0.19835203240E+02 0.43662314649E+02 0.89487070370E+02
 0.15716345980E+03 0.23840428111E+03 0.31767633821E+03 0.28345326930E+03 0.31760454936E+03
 0.31761756624E+03 0.28348811877E+03 0.22492015033E+03 0.15720070857E+03 0.95411105869E+02
 0.49768912304E+02 0.23410419835E+02 0.12586801335E+02 0.90410246572E+01 0.69730411667E+01
 0.57973148551E+01 0.52556191207E+01 0.52552486049E+01 0.57961433819E+01 0.69721494487E+01
 0.90435612549E+01 0.12594543998E+02 0.23418232835E+02 0.49766166035E+02 0.95389348466E+02
 0.15716143706E+03 0.22487527964E+03 0.18832717003E+03 0.22484343974E+03 0.23836775785E+03
 0.22490683094E+03 0.18841050433E+03 0.13912042346E+03 0.89492446759E+02 0.49745402184E+02
 0.24804909284E+02 0.13419539768E+02 0.94985357629E+01 0.72631228974E+01 0.59281299050E+01
 0.52347725102E+01 0.50155089721E+01 0.52346208877E+01 0.59269187039E+01 0.72604129545E+01
 0.94977465354E+01 0.13428147671E+02 0.24825620349E+02 0.49765180793E+02 0.89484138088E+02
 0.13906607846E+03 0.10836417021E+03 0.13905710759E+03 0.15714294211E+03 0.15716243144E+03
 0.13909483683E+03 0.10838125607E+03 0.73712648138E+02 0.43626054701E+02 0.23397942096E+02
 0.13431176287E+02 0.96734558257E+01 0.74253821565E+01 0.60072358167E+01 0.52263057971E+01
 0.48778028471E+01 0.48779589924E+01 0.52267373637E+01 0.60055633913E+01 0.74170476784E+01
 0.96606329919E+01 0.13427941225E+02 0.23417265984E+02 0.43659722260E+02 0.73731297965E+02
 0.53145550597E+02 0.73713275544E+02 0.89450689508E+02 0.95339245627E+02 0.89429615798E+02
 0.73674077531E+02 0.53101695945E+02 0.33686624740E+02 0.19838013007E+02 0.12620439191E+02
 0.95236842947E+01 0.74280310362E+01 0.60300390924E+01 0.52169538114E+01 0.48040063296E+01
 0.46761493099E+01 0.48036474351E+01 0.52189774212E+01 0.60308167427E+01 0.74169679972E+01
 0.94975406114E+01 0.12594025041E+02 0.19833679493E+02 0.33713108676E+02 0.23363139458E+02
 0.33674498912E+02 0.43591148968E+02 0.49664562223E+02 0.49641987459E+02 0.43542178952E+02
 0.33638883967E+02 0.23367793720E+02 0.15644965523E+02 0.11386988870E+02 0.90678049268E+01
 0.72605030150E+01 0.59947567259E+01 0.52116105513E+01 0.47782822744E+01 0.45859287883E+01
 0.45848889234E+01 0.47787810332E+01 0.52189239887E+01 0.60054458744E+01 0.72601928780E+01
 0.90431888127E+01 0.11342530503E+02 0.15605945882E+02 0.12208753360E+02 0.15556864504E+02
 0.19739016460E+02 0.23284064662E+02 0.24668662752E+02 0.23272516829E+02 0.19742404141E+02
 0.15593477584E+02 0.12263056688E+02 0.10117928527E+02 0.83833103984E+01 0.69487610600E+01
 0.59036247776E+01 0.52165673125E+01 0.48036325613E+01 0.45870796356E+01 0.45190460393E+01
 0.45848361557E+01 0.48035421056E+01 0.52265827168E+01 0.59266995152E+01 0.69718224243E+01
 0.83819792901E+01 0.10080685794E+02 0.88028483914E+01 0.10031006611E+02 0.11241488013E+02
 0.12450639746E+02 0.13263632764E+02 0.13275481120E+02 0.12484797265E+02 0.11287818069E+02
 0.10065969471E+02 0.88035068689E+01 0.75836498063E+01 0.65517312927E+01 0.57733151364E+01
 0.52355934868E+01 0.48878511674E+01 0.46820097509E+01 0.45870356476E+01 0.45858313492E+01
 0.46759948820E+01 0.48777536986E+01 0.52343700472E+01 0.57958352119E+01 0.65933694727E+01
 0.76171253373E+01 0.68374933546E+01 0.75661154410E+01 0.82825462013E+01 0.89011364531E+01
 0.93324088147E+01 0.94981722898E+01 0.93577416354E+01 0.89282272892E+01 0.82833465372E+01
 0.75317535093E+01 0.67869526672E+01 0.61391720142E+01 0.56359480211E+01 0.52788583107E+01
 0.50399593145E+01 0.48878137830E+01 0.48035509918E+01 0.47781485642E+01 0.48038142951E+01
 0.48775535355E+01 0.50152110905E+01 0.52549106949E+01 0.56369446964E+01 0.61740557349E+01
 0.57672973454E+01 0.61199112777E+01 0.64932666748E+01 0.68312043141E+01 0.70908736363E+01
 0.72369419530E+01 0.72396248455E+01 0.70883513319E+01 0.68070855173E+01 0.64514240306E+01
 0.60873210404E+01 0.57687063239E+01 0.55265550392E+01 0.53677392521E+01 0.52788292071E+01
 0.52355215794E+01 0.52164443146E+01 0.52114325588E+01 0.52167203842E+01 0.52260197653E+01
 0.52344395460E+01 0.52552463267E+01 0.53269332469E+01 0.54928920843E+01 0.54171290567E+01
 0.54392747547E+01 0.55353299492E+01 0.56542456807E+01 0.57520921831E+01 0.58101482560E+01
 0.58257023817E+01 0.57976772899E+01 0.57276376263E+01 0.56303850025E+01 0.55353970255E+01
 0.54746958762E+01 0.54697137685E+01 0.55265448672E+01 0.56359042891E+01 0.57732163861E+01
 0.59034561093E+01 0.59945142905E+01 0.60297313304E+01 0.60068791818E+01 0.59277405630E+01
 0.57969021360E+01 0.56357043311E+01 0.54910548922E+01 0.57672981232E+01 0.54411093442E+01
 0.52263937259E+01 0.51118043238E+01 0.50564206126E+01 0.50237405085E+01 0.50019126573E+01
 0.49965839563E+01 0.50140636872E+01 0.50573825887E+01 0.51352749553E+01 0.52671034646E+01
 0.54747083582E+01 0.57687090132E+01 0.61391368859E+01 0.65516273006E+01 0.69485611393E+01
 0.72601937454E+01 0.74276200227E+01 0.74248974007E+01 0.72626026030E+01 0.69725193236E+01
 0.65933162765E+01 0.61716380777E+01 0.68374915864E+01 0.61223234366E+01 0.55365537190E+01
 0.51114551671E+01 0.48363502329E+01 0.46724809711E+01 0.45826888447E+01 0.45516156985E+01
 0.45824019249E+01 0.46826986530E+01 0.48610322836E+01 0.51353043961E+01 0.55354434590E+01
 0.60873630577E+01 0.67869580009E+01 0.75835781992E+01 0.83831217221E+01 0.90674710436E+01
 0.95232004678E+01 0.96728460999E+01 0.94978487204E+01 0.90403204837E+01 0.83822243296E+01
 0.76178580849E+01 0.88028367390E+01 0.75653741045E+01 0.64933021514E+01 0.56531442705E+01
 0.50563225985E+01 0.46726688374E+01 0.44527606475E+01 0.43535239991E+01 0.43547353774E+01
 0.44587815265E+01 0.46827363407E+01 0.50574545322E+01 0.56304854220E+01 0.64515343812E+01
 0.75318377480E+01 0.88035160992E+01 0.10117812746E+02 0.11386642515E+02 0.12619700128E+02
 0.13430029547E+02 0.13418182548E+02 0.12585531309E+02 0.11340268239E+02 0.10082790051E+02
 0.12208727792E+02 0.10028881405E+02 0.82822971913E+01 0.68304732466E+01 0.57509961172E+01
 0.50242645774E+01 0.45823983301E+01 0.43525193184E+01 0.42830404761E+01 0.43547811557E+01
 0.45824856237E+01 0.50141878339E+01 0.57278077614E+01 0.68072911755E+01 0.82835491191E+01
 0.10066109043E+02 0.12263073691E+02 0.15644549397E+02 0.19836733454E+02 0.23395613057E+02
 0.24801785484E+02 0.23407111188E+02 0.19833267173E+02 0.15607860099E+02 0.23363114330E+02
 0.15554913042E+02 0.11243756922E+02 0.89040001052E+01 0.70884084402E+01 0.58086548241E+01
 0.50040900923E+01 0.45522368461E+01 0.43525737849E+01 0.43536252118E+01 0.45517541355E+01
 0.49967658009E+01 0.57979230596E+01 0.70886675270E+01 0.89285775098E+01 0.11288194306E+02
 0.15593938594E+02 0.23367823663E+02 0.33685410502E+02 0.43623025296E+02 0.49740631043E+02
 0.49763153622E+02 0.43671876600E+02 0.33720915778E+02 0.53145558405E+02 0.33666665685E+02
 0.19739428534E+02 0.12459164926E+02 0.93320879815E+01 0.72289579113E+01 0.58267641696E+01
 0.50041446252E+01 0.45825061391E+01 0.44529195481E+01 0.45828870547E+01 0.50021524447E+01
 0.58260163015E+01 0.72400453207E+01 0.93582450819E+01 0.12485572626E+02 0.19743739548E+02
 0.33640172202E+02 0.53101740180E+02 0.73710332525E+02 0.89487381713E+02 0.95403896706E+02
 0.89508389927E+02 0.73749453278E+02 0.10836423450E+03 0.73695153056E+02 0.43578980244E+02
 0.23294255807E+02 0.13273435812E+02 0.94859456417E+01 0.72290383814E+01 0.58087743240E+01
 0.50244219865E+01 0.46728780189E+01 0.46727359572E+01 0.50240336343E+01 0.58105128623E+01
 0.72374379438E+01 0.94988032628E+01 0.13276667562E+02 0.23274908904E+02 0.43545292275E+02
 0.73676490465E+02 0.10838130711E+03 0.13911705660E+03 0.15719404350E+03 0.15717456160E+03
 0.13907934275E+03 0.18832727908E+03 0.13904395921E+03 0.89426427632E+02 0.49666593480E+02
 0.24692565426E+02 0.13273640738E+02 0.93322938112E+01 0.70886305075E+01 0.57512180281E+01
 0.50565762663E+01 0.48366521071E+01 0.50567596918E+01 0.57524895567E+01 0.70914049208E+01
 0.93331152530E+01 0.13265026881E+02 0.24671848067E+02 0.49646842933E+02 0.89434778095E+02
 0.13909830214E+03 0.18841054980E+03 0.22491617332E+03 0.23837917580E+03 0.22485284964E+03
 0.28345338202E+03 0.22486604034E+03 0.15712984621E+03 0.95324678077E+02 0.49667574473E+02
 0.23295216938E+02 0.12459680187E+02 0.89043723556E+01 0.68308018469E+01 0.56534539364E+01
 0.51117951240E+01 0.51121814588E+01 0.56546653356E+01 0.68317354979E+01 0.89018556020E+01
 0.12451938295E+02 0.23287423756E+02 0.49670393717E+02 0.95346540757E+02 0.15716918301E+03
 0.22491088594E+03 0.28348815154E+03 0.31761927625E+03 0.31760630233E+03 0.37601086965E+03
 0.31767474951E+03 0.23839294772E+03 0.15713186331E+03 0.89429349998E+02 0.43581561104E+02
 0.19740942983E+02 0.11244385653E+02 0.82827788778E+01 0.64936993681E+01 0.55369333393E+01
 0.52268017625E+01 0.55357682149E+01 0.64937775169E+01 0.82832228117E+01 0.11242494157E+02
 0.19741876706E+02 0.43596839952E+02 0.89458750224E+02 0.15715168860E+03 0.23837497407E+03
 0.31762144942E+03 0.37596310049E+03 0.39751280369E+03 0.44413410807E+03 0.39759684223E+03
 0.31767702712E+03 0.22487048899E+03 0.13904939696E+03 0.73700061448E+02 0.33669945424E+02
 0.15556411366E+02 0.10029526893E+02 0.75658933325E+01 0.61227572343E+01 0.54415426726E+01
 0.54397275226E+01 0.61203958498E+01 0.75667147875E+01 0.10031782940E+02 0.15558823826E+02
 0.33679066401E+02 0.73720577217E+02 0.13906597416E+03 0.22485191335E+03 0.31761069985E+03
 0.39751602837E+03 0.44409739050E+03 0.39157700299E+03 0.37043112899E+03 0.31307479208E+03
 0.23503729864E+03 0.15493700751E+03 0.88139769452E+02 0.42929388731E+02 0.19492023629E+02
 0.11182749010E+02 0.82534845270E+01 0.64791425705E+01 0.55300305936E+01 0.52232230105E+01
 0.55300391388E+01 0.64791582725E+01 0.82535113679E+01 0.11182793176E+02 0.19492076594E+02
 0.42929421201E+02 0.88139756150E+02 0.15493695571E+03 0.23503724354E+03 0.31307476173E+03
 0.37043112160E+03 0.37043023400E+03 0.37040047650E+03 0.33119267010E+03 0.26384478648E+03
 0.18566405069E+03 0.11370076151E+03 0.59651231066E+02 0.27505567630E+02 0.13700554342E+02
 0.94353164545E+01 0.71882334499E+01 0.58952605455E+01 0.52961061631E+01 0.52977238450E+01
 0.58973612662E+01 0.71874634527E+01 0.94332938547E+01 0.13698909191E+02 0.27499012201E+02
 0.59635278886E+02 0.11368721357E+03 0.18567837631E+03 0.26389788974E+03 0.33125795050E+03
 0.31307171662E+03 0.33118700105E+03 0.31303346697E+03 0.26385355668E+03 0.19705733225E+03
 0.12883219154E+03 0.72584504793E+02 0.35369939794E+02 0.16846725431E+02 0.10530384317E+02
 0.78891492591E+01 0.62787138899E+01 0.54301450999E+01 0.51596345637E+01 0.54311957945E+01
 0.62786314142E+01 0.78885749260E+01 0.10531831717E+02 0.16846361101E+02 0.35358191414E+02
 0.72560990993E+02 0.12881577588E+03 0.19707107829E+03 0.26389593633E+03 0.23503194376E+03
 0.26382869187E+03 0.26383944331E+03 0.23506065414E+03 0.18571139626E+03 0.12884619489E+03
 0.77446166778E+02 0.40239102808E+02 0.19552306458E+02 0.11489718742E+02 0.84970192324E+01
 0.66274711049E+01 0.55798163241E+01 0.51032856234E+01 0.51029715375E+01 0.55788459729E+01
 0.66267247665E+01 0.84989738301E+01 0.11495843211E+02 0.19558471541E+02 0.40236700138E+02
 0.77428335538E+02 0.12881406061E+03 0.18567457069E+03 0.15493044630E+03 0.18563373117E+03
 0.19702061123E+03 0.18568492732E+03 0.15499772164E+03 0.11372648889E+03 0.72565397277E+02
 0.40220249162E+02 0.20617323124E+02 0.12109884336E+02 0.89207749424E+01 0.68967760057E+01
 0.57040484812E+01 0.50914806481E+01 0.48995895460E+01 0.50914118531E+01 0.57032307423E+01
 0.68947853330E+01 0.89201380631E+01 0.12116633167E+02 0.20633695957E+02 0.40235899847E+02
 0.72558546390E+02 0.11368260434E+03 0.88133619074E+02 0.11365531017E+03 0.12876728177E+03
 0.12878299723E+03 0.11368565036E+03 0.88147131340E+02 0.59615818583E+02 0.35328728022E+02
 0.19542090260E+02 0.12119058398E+02 0.90816431470E+01 0.70478482054E+01 0.57816245243E+01
 0.50903779564E+01 0.47848548023E+01 0.47849589657E+01 0.50907743755E+01 0.57805374323E+01
 0.70414835257E+01 0.90714526572E+01 0.12116475964E+02 0.19557723578E+02 0.35356103112E+02
 0.59631208003E+02 0.42924989056E+02 0.59593818834E+02 0.72492430285E+02 0.77342937396E+02
 0.72475701254E+02 0.59562410092E+02 0.42889484076E+02 0.27474614450E+02 0.16848212693E+02
 0.11516386020E+02 0.89407708248E+01 0.70500406223E+01 0.58052971297E+01 0.50866365795E+01
 0.47245842059E+01 0.46132977705E+01 0.47240733053E+01 0.50881084140E+01 0.58060356472E+01
 0.70414115856E+01 0.89199509406E+01 0.11495443115E+02 0.16845198768E+02 0.27496403626E+02
 0.19489793931E+02 0.27442122259E+02 0.35258761842E+02 0.40102284153E+02 0.40084182645E+02
 0.35219536882E+02 0.27413688198E+02 0.19493656410E+02 0.13729071298E+02 0.10566868370E+02
 0.85182375954E+01 0.68947749084E+01 0.57720006928E+01 0.50824776454E+01 0.47037290464E+01
 0.45370819237E+01 0.45361452071E+01 0.47038681971E+01 0.50880590762E+01 0.57804297310E+01
 0.68945855328E+01 0.84986349285E+01 0.10531313905E+02 0.13697775693E+02 0.11181946572E+02
 0.13636242612E+02 0.16726992075E+02 0.19394763679E+02 0.20446610537E+02 0.19385255841E+02
 0.16729581550E+02 0.13665827263E+02 0.11225885257E+02 0.94628326696E+01 0.78892066226E+01
 0.66079716581E+01 0.56847392948E+01 0.50827841031E+01 0.47239981950E+01 0.45377365675E+01
 0.44798128682E+01 0.45360965438E+01 0.47239761198E+01 0.50906313129E+01 0.57030286964E+01
 0.66264257982E+01 0.78881347117E+01 0.94326965389E+01 0.82529079631E+01 0.93715734375E+01
 0.10408687608E+02 0.11322738631E+02 0.11917999911E+02 0.11927334268E+02 0.11349802145E+02
 0.10445651227E+02 0.93996254651E+01 0.82534105988E+01 0.71600187359E+01 0.62448201698E+01
 0.55605912276E+01 0.50921708217E+01 0.47925425503E+01 0.46174538493E+01 0.45376951434E+01
 0.45369913615E+01 0.46131552984E+01 0.47847696990E+01 0.50911800231E+01 0.55785612085E+01
 0.62782656884E+01 0.71869854711E+01 0.64786876223E+01 0.71246300002E+01 0.77663492801E+01
 0.83246449509E+01 0.87150579439E+01 0.88641868663E+01 0.87352261241E+01 0.83461513733E+01
 0.77667559919E+01 0.70968144169E+01 0.64378728596E+01 0.58687375900E+01 0.54298870142E+01
 0.51217297529E+01 0.49189251848E+01 0.47925067875E+01 0.47239206556E+01 0.47036033172E+01
 0.47244055972E+01 0.47846246195E+01 0.48993152503E+01 0.51026601246E+01 0.54308454324E+01
 0.58969591569E+01 0.55296171341E+01 0.58314081127E+01 0.61545321504E+01 0.64503430763E+01
 0.66796353197E+01 0.68090381338E+01 0.68112695074E+01 0.66777424946E+01 0.64310122203E+01
 0.61208796922E+01 0.58052183662E+01 0.55307764023E+01 0.53242967187E+01 0.51918235212E+01
 0.51217020060E+01 0.50921024640E+01 0.50826676226E+01 0.50823099563E+01 0.50864179916E+01
 0.50901117525E+01 0.50911724885E+01 0.51029420877E+01 0.51592614824E+01 0.52973253142E+01
 0.52228035624E+01 0.52319011617E+01 0.53044691186E+01 0.53982950798E+01 0.54769286291E+01
 0.55243262887E+01 0.55374110164E+01 0.55147333227E+01 0.54577052394E+01 0.53792410393E+01
 0.53044818767E+01 0.52604512485E+01 0.52652581186E+01 0.53242867780E+01 0.54298454106E+01
 0.55604981631E+01 0.56845812723E+01 0.57717744930E+01 0.58050106807E+01 0.57812929620E+01
 0.57036868766E+01 0.55794339377E+01 0.54297455955E+01 0.52956929225E+01 0.55296104970E+01
 0.52335232672E+01 0.50332907447E+01 0.49189169003E+01 0.48569521179E+01 0.48183496536E+01
 0.47944198199E+01 0.47902891415E+01 0.48108547242E+01 0.48578326447E+01 0.49376370361E+01
 0.50658133210E+01 0.52604622507E+01 0.55307779193E+01 0.58687037842E+01 0.62447225307E+01
 0.66077855790E+01 0.68944885044E+01 0.70496612005E+01 0.70474013791E+01 0.68962963951E+01
 0.66269895747E+01 0.62782489785E+01 0.58948182913E+01 0.64786745710E+01 0.58335233771E+01
 0.53055405897E+01 0.49186180063E+01 0.46622718999E+01 0.45043968550E+01 0.44156065829E+01
 0.43847775462E+01 0.44151362979E+01 0.45123036600E+01 0.46818954953E+01 0.49376635011E+01
 0.53045234556E+01 0.58052555117E+01 0.64378759858E+01 0.71599507227E+01 0.78890303100E+01
 0.85179269918E+01 0.89403219633E+01 0.90810790430E+01 0.89201411643E+01 0.84963713030E+01
 0.78885370817E+01 0.71876888793E+01 0.82528847172E+01 0.71238916217E+01 0.61545073026E+01
 0.53973749121E+01 0.48569225925E+01 0.45045220039E+01 0.42982866527E+01 0.42033821015E+01
 0.42041128250E+01 0.43026448342E+01 0.45123376668E+01 0.48578973999E+01 0.53793312129E+01
 0.61209785874E+01 0.70968893641E+01 0.82534164105E+01 0.94627218190E+01 0.10566590076E+02
 0.11515831414E+02 0.12118206391E+02 0.12108872525E+02 0.11488755676E+02 0.10529583316E+02
 0.94346103876E+01 0.11181909267E+02 0.93696100498E+01 0.77659080000E+01 0.64497176086E+01
 0.54761966093E+01 0.48188100410E+01 0.44151392674E+01 0.42024652120E+01 0.41374286737E+01
 0.42041542653E+01 0.44152119879E+01 0.48109666738E+01 0.54578581490E+01 0.64311969926E+01
 0.77669385534E+01 0.93997511407E+01 0.11225896515E+02 0.13728765100E+02 0.16847251858E+02
 0.19540312572E+02 0.20614923138E+02 0.19549772253E+02 0.16844586515E+02 0.13699105507E+02
 0.19489752801E+02 0.13634842866E+02 0.10410381853E+02 0.83268606039E+01 0.66778375351E+01
 0.55233745099E+01 0.47960011977E+01 0.43849958628E+01 0.42025150465E+01 0.42034740551E+01
 0.43849031105E+01 0.47904536904E+01 0.55149546375E+01 0.66780268337E+01 0.83464682376E+01
 0.10445947305E+02 0.13666162936E+02 0.19493676349E+02 0.27473660143E+02 0.35326308121E+02
 0.40216405241E+02 0.40234457348E+02 0.35365420199E+02 0.27501987456E+02 0.42924971927E+02
 0.27436468631E+02 0.16727554869E+02 0.11329403228E+02 0.87148102624E+01 0.68029582914E+01
 0.55383709990E+01 0.47960521002E+01 0.44152390523E+01 0.42984319953E+01 0.44157870572E+01
 0.47946378322E+01 0.55376948344E+01 0.68116481899E+01 0.87356824894E+01 0.11350377670E+02
 0.16730578252E+02 0.27414691150E+02 0.42889512919E+02 0.59613912651E+02 0.72561197191E+02
 0.77440168730E+02 0.72577862027E+02 0.59645242778E+02 0.88133647584E+02 0.59579756388E+02
 0.35249374069E+02 0.19402691635E+02 0.11925592290E+02 0.88545024399E+01 0.68030314967E+01
 0.55234852208E+01 0.48189569447E+01 0.45047150407E+01 0.45046301098E+01 0.48186174300E+01
 0.55246578375E+01 0.68094861373E+01 0.88647594691E+01 0.11928208713E+02 0.19387073144E+02
 0.35222010869E+02 0.59564378220E+02 0.88147163205E+02 0.11372364755E+03 0.12884055564E+03