   2   2   0   0
  0.1653908E+02  0.2799938E-09  0.2800000E-09  0.4872000E-09  0.5000000E-15
  1.000000000000000E-004
  CAR 
 sc Cu                                   
     22.30159296     -7.05776711  301      1.33796948      1.00000000
     -7.058  0.0000E+00  0.0000E+00
     -6.960  0.0000E+00  0.0000E+00
     -6.862  0.0000E+00  0.0000E+00
     -6.764  0.0000E+00  0.0000E+00
     -6.666  0.0000E+00  0.0000E+00
     -6.568  0.0000E+00  0.0000E+00
     -6.471  0.0000E+00  0.0000E+00
     -6.373  0.0000E+00  0.0000E+00
     -6.275  0.0000E+00  0.0000E+00
     -6.177  0.0000E+00  0.0000E+00
     -6.079  0.0000E+00  0.0000E+00
     -5.981  0.2600E-14  0.2544E-15
     -5.883  0.5244E-07  0.5132E-08
     -5.786  0.6933E-03  0.6785E-04
     -5.688  0.1533E-01  0.1568E-02
     -5.590  0.3816E-01  0.5303E-02
     -5.492  0.1077E+00  0.1585E-01
     -5.394  0.1868E+00  0.3413E-01
     -5.296  0.4991E-01  0.3901E-01
     -5.198  0.4192E-01  0.4312E-01
     -5.100  0.2959E+00  0.7207E-01
     -5.003  0.2394E+00  0.9550E-01
     -4.905  0.1494E+00  0.1101E+00
     -4.807  0.1991E+00  0.1296E+00
     -4.709  0.1866E+00  0.1479E+00
     -4.611  0.2584E+00  0.1732E+00
     -4.513  0.1788E+00  0.1907E+00
     -4.415  0.2154E+00  0.2117E+00
     -4.318  0.4350E+00  0.2543E+00
     -4.220  0.1889E+00  0.2728E+00
     -4.122  0.2738E+00  0.2996E+00
     -4.024  0.6758E+00  0.3657E+00
     -3.926  0.2511E+00  0.3903E+00
     -3.828  0.1060E-01  0.3913E+00
     -3.730  0.1794E+00  0.4089E+00
     -3.633  0.4796E+00  0.4558E+00
     -3.535  0.4794E+00  0.5028E+00
     -3.437  0.5117E+00  0.5528E+00
     -3.339  0.5143E+00  0.6032E+00
     -3.241  0.4835E+00  0.6505E+00
     -3.143  0.3487E+00  0.6846E+00
     -3.045  0.4956E+00  0.7331E+00
     -2.947  0.5372E+00  0.7857E+00
     -2.850  0.3875E+00  0.8236E+00
     -2.752  0.8999E+00  0.9117E+00
     -2.654  0.2491E+00  0.9361E+00
     -2.556  0.5951E+00  0.9943E+00
     -2.458  0.8579E+00  0.1078E+01
     -2.360  0.1717E+01  0.1246E+01
     -2.262  0.1133E+01  0.1357E+01
     -2.165  0.1428E+01  0.1497E+01
     -2.067  0.9439E+00  0.1589E+01
     -1.969  0.3095E+01  0.1892E+01
     -1.871  0.3308E+01  0.2216E+01
     -1.773  0.3585E+01  0.2567E+01
     -1.675  0.4488E+01  0.3006E+01
     -1.577  0.4082E+01  0.3405E+01
     -1.479  0.5473E+01  0.3941E+01
     -1.382  0.7883E+01  0.4713E+01
     -1.284  0.8941E+01  0.5588E+01
     -1.186  0.9007E+01  0.6469E+01
     -1.088  0.8868E+01  0.7337E+01
     -0.990  0.7957E+01  0.8116E+01
     -0.892  0.1163E+02  0.9254E+01
     -0.794  0.1269E+02  0.1050E+02
     -0.697  0.1180E+02  0.1165E+02
     -0.599  0.1266E+02  0.1289E+02
     -0.501  0.1163E+02  0.1403E+02
     -0.403  0.1116E+02  0.1512E+02
     -0.305  0.9049E+01  0.1600E+02
     -0.207  0.1265E+02  0.1724E+02
     -0.109  0.1549E+02  0.1876E+02
     -0.012  0.1676E+02  0.2040E+02
      0.086  0.5213E+01  0.2091E+02
      0.184  0.6235E+00  0.2097E+02
      0.282  0.1241E+01  0.2109E+02
      0.380  0.1913E+01  0.2128E+02
      0.478  0.1067E+01  0.2138E+02
      0.576  0.9980E+00  0.2148E+02
      0.674  0.1695E+00  0.2150E+02
      0.771  0.5913E+00  0.2156E+02
      0.869  0.5658E+00  0.2161E+02
      0.967  0.8953E+00  0.2170E+02
      1.065  0.5115E+00  0.2175E+02
      1.163  0.8645E+00  0.2183E+02
      1.261  0.7001E+00  0.2190E+02
      1.359  0.1198E+01  0.2202E+02
      1.456  0.5917E+00  0.2208E+02
      1.554  0.4762E+00  0.2212E+02
      1.652  0.1197E+01  0.2224E+02
      1.750  0.1031E+01  0.2234E+02
      1.848  0.3606E+00  0.2238E+02
      1.946  0.2209E+00  0.2240E+02
      2.044  0.4901E+00  0.2245E+02
      2.141  0.7664E+00  0.2252E+02
      2.239  0.6233E+00  0.2258E+02
      2.337  0.3826E+00  0.2262E+02
      2.435  0.2973E+00  0.2265E+02
      2.533  0.7992E+00  0.2273E+02
      2.631  0.6855E+00  0.2279E+02
      2.729  0.6120E+00  0.2285E+02
      2.827  0.1143E+01  0.2297E+02
      2.924  0.9579E+00  0.2306E+02
      3.022  0.4844E+00  0.2311E+02
      3.120  0.9176E+00  0.2320E+02
      3.218  0.7442E+00  0.2327E+02
      3.316  0.1011E+01  0.2337E+02
      3.414  0.5607E+00  0.2342E+02
      3.512  0.9160E-01  0.2343E+02
      3.609  0.2492E+00  0.2346E+02
      3.707  0.3791E+00  0.2349E+02
      3.805  0.3923E+00  0.2353E+02
      3.903  0.7161E+00  0.2360E+02
      4.001  0.6244E+00  0.2366E+02
      4.099  0.4003E+00  0.2370E+02
      4.197  0.3214E+00  0.2373E+02
      4.295  0.4647E+00  0.2378E+02
      4.392  0.7710E+00  0.2386E+02
      4.490  0.8831E+00  0.2394E+02
      4.588  0.5925E+00  0.2400E+02
      4.686  0.4766E+00  0.2405E+02
      4.784  0.2522E+00  0.2407E+02
      4.882  0.3793E+00  0.2411E+02
      4.980  0.7768E+00  0.2418E+02
      5.077  0.1004E+01  0.2428E+02
      5.175  0.5388E+00  0.2433E+02
      5.273  0.4377E+00  0.2438E+02
      5.371  0.8042E+00  0.2446E+02
      5.469  0.4493E+00  0.2450E+02
      5.567  0.1632E+00  0.2452E+02
      5.665  0.8369E+00  0.2460E+02
      5.762  0.7299E+00  0.2467E+02
      5.860  0.6489E+00  0.2473E+02
      5.958  0.9434E+00  0.2483E+02
      6.056  0.1314E+01  0.2495E+02
      6.154  0.1114E+01  0.2506E+02
      6.252  0.1017E+01  0.2516E+02
      6.350  0.4561E+00  0.2521E+02
      6.448  0.6666E+00  0.2527E+02
      6.545  0.5384E+00  0.2533E+02
      6.643  0.5643E+00  0.2538E+02
      6.741  0.4672E+00  0.2543E+02
      6.839  0.6736E+00  0.2549E+02
      6.937  0.1790E+01  0.2567E+02
      7.035  0.1199E+01  0.2578E+02
      7.133  0.7172E+00  0.2585E+02
      7.230  0.8699E+00  0.2594E+02
      7.328  0.8135E+00  0.2602E+02
      7.426  0.3970E+00  0.2606E+02
      7.524  0.1269E+01  0.2618E+02
      7.622  0.6042E+00  0.2624E+02
      7.720  0.1279E+01  0.2637E+02
      7.818  0.1075E+01  0.2647E+02
      7.916  0.4318E+00  0.2651E+02
      8.013  0.7357E+00  0.2659E+02
      8.111  0.7792E+00  0.2666E+02
      8.209  0.6769E+00  0.2673E+02
      8.307  0.1131E+01  0.2684E+02
      8.405  0.9589E+00  0.2693E+02
      8.503  0.1743E+00  0.2695E+02
      8.601  0.6457E+00  0.2701E+02
      8.698  0.7330E+00  0.2709E+02
      8.796  0.7374E+00  0.2716E+02
      8.894  0.1028E+01  0.2726E+02
      8.992  0.9092E+00  0.2735E+02
      9.090  0.5369E+00  0.2740E+02
      9.188  0.9585E+00  0.2749E+02
      9.286  0.9926E+00  0.2759E+02
      9.383  0.3439E+00  0.2762E+02
      9.481  0.3828E+00  0.2766E+02
      9.579  0.4738E+00  0.2771E+02
      9.677  0.1123E+01  0.2782E+02
      9.775  0.1109E+01  0.2793E+02
      9.873  0.7960E+00  0.2800E+02
      9.971  0.4056E+00  0.2804E+02
     10.069  0.8878E+00  0.2813E+02
     10.166  0.8343E+00  0.2821E+02
     10.264  0.1258E+01  0.2834E+02
     10.362  0.7809E+00  0.2841E+02
     10.460  0.4571E+00  0.2846E+02
     10.558  0.1145E+01  0.2857E+02
     10.656  0.1040E+01  0.2867E+02
     10.754  0.7398E+00  0.2874E+02
     10.851  0.5228E+00  0.2879E+02
     10.949  0.7081E+00  0.2886E+02
     11.047  0.6463E+00  0.2893E+02
     11.145  0.1270E+01  0.2905E+02
     11.243  0.6830E+00  0.2912E+02
     11.341  0.2955E+00  0.2915E+02
     11.439  0.1257E+01  0.2927E+02
     11.536  0.1264E+01  0.2939E+02
     11.634  0.5816E+00  0.2945E+02
     11.732  0.1789E+00  0.2947E+02
     11.830  0.3208E+00  0.2950E+02
     11.928  0.7861E+00  0.2958E+02
     12.026  0.9417E+00  0.2967E+02
     12.124  0.7211E+00  0.2974E+02
     12.222  0.4554E+00  0.2978E+02
     12.319  0.1078E+01  0.2989E+02
     12.417  0.5728E+00  0.2995E+02
     12.515  0.5301E+00  0.3000E+02
     12.613  0.6995E+00  0.3007E+02
     12.711  0.8035E+00  0.3014E+02
     12.809  0.8544E+00  0.3023E+02
     12.907  0.6804E+00  0.3029E+02
     13.004  0.5215E+00  0.3035E+02
     13.102  0.5953E+00  0.3040E+02
     13.200  0.6911E+00  0.3047E+02
     13.298  0.3422E+00  0.3050E+02
     13.396  0.1176E-01  0.3051E+02
     13.494  0.1529E+00  0.3052E+02
     13.592  0.1019E+01  0.3062E+02
     13.690  0.1183E+01  0.3074E+02
     13.787  0.3495E+00  0.3077E+02
     13.885  0.7731E+00  0.3085E+02
     13.983  0.8201E+00  0.3093E+02
     14.081  0.2485E+00  0.3095E+02
     14.179  0.1691E+00  0.3097E+02
     14.277  0.4145E+00  0.3101E+02
     14.375  0.3372E+00  0.3104E+02
     14.472  0.6404E+00  0.3110E+02
     14.570  0.5873E-01  0.3111E+02
     14.668  0.3867E-01  0.3111E+02
     14.766  0.1487E+00  0.3113E+02
     14.864  0.3317E+00  0.3116E+02
     14.962  0.4343E-01  0.3116E+02
     15.060  0.3362E+00  0.3120E+02
     15.157  0.5686E+00  0.3125E+02
     15.255  0.2537E+00  0.3128E+02
     15.353  0.4738E+00  0.3132E+02
     15.451  0.3241E+00  0.3136E+02
     15.549  0.7154E+00  0.3143E+02
     15.647  0.2984E+00  0.3146E+02
     15.745  0.1207E+00  0.3147E+02
     15.843  0.1302E-02  0.3147E+02
     15.940  0.1449E+00  0.3148E+02
     16.038  0.2863E+00  0.3151E+02
     16.136  0.1815E+00  0.3153E+02
     16.234  0.9774E-01  0.3154E+02
     16.332  0.1820E+00  0.3155E+02
     16.430  0.6894E-01  0.3156E+02
     16.528  0.8779E-01  0.3157E+02
     16.625  0.1680E+00  0.3159E+02
     16.723  0.3827E+00  0.3162E+02
     16.821  0.3492E+00  0.3166E+02
     16.919  0.1193E+00  0.3167E+02
     17.017  0.3077E+00  0.3170E+02
     17.115  0.1733E+00  0.3172E+02
     17.213  0.4520E-02  0.3172E+02
     17.311  0.1004E-01  0.3172E+02
     17.408  0.1737E+00  0.3173E+02
     17.506  0.3241E-01  0.3174E+02
     17.604  0.2957E-01  0.3174E+02
     17.702  0.3291E-01  0.3174E+02
     17.800  0.1852E+00  0.3176E+02
     17.898  0.2203E+00  0.3178E+02
     17.996  0.2042E+00  0.3180E+02
     18.093  0.2266E+00  0.3183E+02
     18.191  0.2027E+00  0.3185E+02
     18.289  0.1059E+00  0.3186E+02
     18.387  0.1837E+00  0.3187E+02
     18.485  0.4305E-01  0.3188E+02
     18.583  0.1798E+00  0.3190E+02
     18.681  0.1605E+00  0.3191E+02
     18.778  0.7179E-01  0.3192E+02
     18.876  0.8669E-01  0.3193E+02
     18.974  0.1507E-01  0.3193E+02
     19.072  0.1143E-03  0.3193E+02
     19.170  0.6521E-01  0.3194E+02
     19.268  0.1608E+00  0.3195E+02
     19.366  0.1023E-01  0.3195E+02
     19.464  0.8760E-01  0.3196E+02
     19.561  0.1516E-01  0.3196E+02
     19.659  0.3837E-01  0.3197E+02
     19.757  0.1496E+00  0.3198E+02
     19.855  0.2280E-01  0.3198E+02
     19.953  0.4327E-02  0.3198E+02
     20.051  0.5875E-01  0.3199E+02
     20.149  0.7886E-02  0.3199E+02
     20.246  0.2362E-05  0.3199E+02
     20.344  0.6028E-04  0.3199E+02
     20.442  0.2517E-01  0.3199E+02
     20.540  0.4515E-01  0.3200E+02
     20.638  0.5858E-03  0.3200E+02
     20.736  0.8517E-08  0.3200E+02
     20.834  0.2919E-05  0.3200E+02
     20.931  0.5626E-02  0.3200E+02
     21.029  0.2848E-01  0.3200E+02
     21.127  0.1367E-02  0.3200E+02
     21.225  0.1017E-06  0.3200E+02
     21.323  0.4959E-14  0.3200E+02
     21.421  0.0000E+00  0.3200E+02
     21.519  0.0000E+00  0.3200E+02
     21.617  0.0000E+00  0.3200E+02
     21.714  0.0000E+00  0.3200E+02
     21.812  0.0000E+00  0.3200E+02
     21.910  0.0000E+00  0.3200E+02
     22.008  0.0000E+00  0.3200E+02
     22.106  0.0000E+00  0.3200E+02
     22.204  0.0000E+00  0.3200E+02
     22.302  0.0000E+00  0.3200E+02
