    2    2    1    1
  0.1653908E+02  0.2799938E-09  0.2800000E-09  0.4872000E-09  0.5000000E-15
  1.000000000000000E-004
  CAR 
 sc Cu                                   
     22    370     16
 
  0.0000000E+00  0.0000000E+00  0.0000000E+00  0.8680556E-03
      1         -5.723251   1.000000
      2         -2.350253   1.000000
      3         -1.010942   1.000000
      4         -0.844423   1.000000
      5         -0.844280   1.000000
      6         -0.753138   1.000000
      7         -0.752948   1.000000
      8         -0.452699   1.000000
      9         -0.452591   1.000000
     10         -0.105193   1.000000
     11         -0.105028   1.000000
     12          0.870102   1.000000
     13          2.998785   0.000000
     14         19.223627   0.000000
     15         19.616534   0.000000
     16         19.617368   0.000000
 
  0.8333333E-01  0.0000000E+00  0.0000000E+00  0.1736111E-02
      1         -5.537985   1.000000
      2         -2.238586   1.000000
      3         -1.012201   1.000000
      4         -0.849433   1.000000
      5         -0.791476   1.000000
      6         -0.779102   1.000000
      7         -0.704448   1.000000
      8         -0.526056   1.000000
      9         -0.478995   1.000000
     10         -0.381100   1.000000
     11         -0.097753   1.000000
     12          1.370093   0.181782
     13          3.059536   0.000000
     14         16.960351   0.000000
     15         18.237644   0.000000
     16         19.422539   0.000000
 
  0.1666667E+00  0.0000000E+00  0.0000000E+00  0.1736111E-02
      1         -4.991945   1.000000
      2         -1.953471   1.000000
      3         -1.061604   1.000000
      4         -0.892959   1.000000
      5         -0.884848   1.000000
      6         -0.748879   1.000000
      7         -0.644031   1.000000
      8         -0.569397   1.000000
      9         -0.544874   1.000000
     10         -0.527799   1.000000
     11         -0.084257   1.000000
     12          2.340443   0.000000
     13          3.270803   0.000000
     14         13.448565   0.000000
     15         16.492019   0.000000
     16         18.837860   0.000000
 
  0.2500000E+00  0.0000000E+00  0.0000000E+00  0.1736111E-02
      1         -4.125488   1.000000
      2         -1.686600   1.000000
      3         -1.220493   1.000000
      4         -1.082385   1.000000
      5         -0.959377   1.000000
      6         -0.640360   1.000000
      7         -0.626175   1.000000
      8         -0.559374   1.000000
      9         -0.433254   1.000000
     10         -0.377768   1.000000
     11         -0.074428   1.000000
     12          3.554756   0.000000
     13          3.720023   0.000000
     14         10.158383   0.000000
     15         15.003594   0.000000
     16         16.220254   0.000000
 
  0.3333333E+00  0.0000000E+00  0.0000000E+00  0.1736111E-02
      1         -3.072516   1.000000
      2         -1.667049   1.000000
      3         -1.439197   1.000000
      4         -1.025780   1.000000
      5         -0.865953   1.000000
      6         -0.749605   1.000000
      7         -0.701058   1.000000
      8         -0.218770   1.000000
      9         -0.212193   1.000000
     10         -0.175605   1.000000
     11         -0.070434   1.000000
     12          4.493270   0.000000
     13          4.981860   0.000000
     14          7.227976   0.000000
     15         13.197044   0.000000
     16         13.863615   0.000000
 
  0.4166667E+00  0.0000000E+00  0.0000000E+00  0.1736111E-02
      1         -2.247141   1.000000
      2         -1.755124   1.000000
      3         -1.560486   1.000000
      4         -0.859281   1.000000
      5         -0.829482   1.000000
      6         -0.752840   1.000000
      7         -0.704599   1.000000
      8         -0.069978   1.000000
      9         -0.048615   1.000000
     10         -0.014619   1.000000
     11          0.486826   1.000000
     12          4.235510   0.000000
     13          6.157550   0.000000
     14          6.562719   0.000000
     15         10.535210   0.000000
     16         11.414163   0.000000
 
  0.5000000E+00  0.0000000E+00  0.0000000E+00  0.8680556E-03
      1         -1.996945   1.000000
      2         -1.816450   1.000000
      3         -1.598794   1.000000
      4         -0.858754   1.000000
      5         -0.771033   1.000000
      6         -0.743976   1.000000
      7         -0.631615   1.000000
      8         -0.070115   1.000000
      9          0.011064   1.000000
     10          0.049274   1.000000
     11          1.614645   0.000000
     12          2.556174   0.000000
     13          7.268030   0.000000
     14          7.674819   0.000000
     15          8.850992   0.000000
     16         10.030266   0.000000
 
 -0.1834673E-17  0.8333333E-01  0.0000000E+00  0.1736111E-02
      1         -5.537994   1.000000
      2         -2.238594   1.000000
      3         -1.012224   1.000000
      4         -0.849516   1.000000
      5         -0.791378   1.000000
      6         -0.779182   1.000000
      7         -0.704360   1.000000
      8         -0.526060   1.000000
      9         -0.478977   1.000000
     10         -0.381107   1.000000
     11         -0.097742   1.000000
     12          1.370071   0.181946
     13          3.059533   0.000000
     14         16.959441   0.000000
     15         18.238251   0.000000
     16         19.422518   0.000000
 
 -0.8333333E-01  0.8333333E-01  0.0000000E+00  0.1736111E-02
      1         -5.537995   1.000000
      2         -2.238590   1.000000
      3         -1.012199   1.000000
      4         -0.849435   1.000000
      5         -0.791488   1.000000
      6         -0.779023   1.000000
      7         -0.704523   1.000000
      8         -0.526089   1.000000
      9         -0.478916   1.000000
     10         -0.381054   1.000000
     11         -0.097859   1.000000
     12          1.370107   0.181682
     13          3.059538   0.000000
     14         16.959472   0.000000
     15         18.238123   0.000000
     16         19.422514   0.000000
 
  0.8333333E-01  0.8333333E-01  0.0000000E+00  0.1736111E-02
      1         -5.172034   1.000000
      2         -2.037297   1.000000
      3         -1.048876   1.000000
      4         -0.831878   1.000000
      5         -0.824687   1.000000
      6         -0.778685   1.000000
      7         -0.684613   1.000000
      8         -0.601492   1.000000
      9         -0.575110   1.000000
     10         -0.453712   1.000000
     11         -0.093084   1.000000
     12          2.054812   0.000000
     13          3.196020   0.000000
     14         15.161914   0.000000
     15         15.379593   0.000000
     16         19.717355   0.000000
 
 -0.1666667E+00  0.8333333E-01  0.0000000E+00  0.1736111E-02
      1         -5.172037   1.000000
      2         -2.037287   1.000000
      3         -1.048808   1.000000
      4         -0.831716   1.000000
      5         -0.824642   1.000000
      6         -0.778619   1.000000
      7         -0.684758   1.000000
      8         -0.601653   1.000000
      9         -0.575183   1.000000
     10         -0.453638   1.000000
     11         -0.093196   1.000000
     12          2.054866   0.000000
     13          3.196034   0.000000
     14         15.161813   0.000000
     15         15.379706   0.000000
     16         19.717334   0.000000
 
  0.1666667E+00  0.8333333E-01  0.0000000E+00  0.1736111E-02
      1         -4.462472   1.000000
      2         -1.734589   1.000000
      3         -1.131168   1.000000
      4         -1.103931   1.000000
      5         -0.915304   1.000000
      6         -0.713219   1.000000
      7         -0.678895   1.000000
      8         -0.521404   1.000000
      9         -0.490951   1.000000
     10         -0.408571   1.000000
     11         -0.090064   1.000000
     12          3.102533   0.000000
     13          3.531518   0.000000
     14         11.868011   0.000000
     15         13.821970   0.000000
     16         17.932595   0.000000
 
 -0.2500000E+00  0.8333333E-01  0.0000000E+00  0.1736111E-02
      1         -4.462478   1.000000
      2         -1.734582   1.000000
      3         -1.131079   1.000000
      4         -1.103896   1.000000
      5         -0.915213   1.000000
      6         -0.713146   1.000000
      7         -0.678954   1.000000
      8         -0.521345   1.000000
      9         -0.491107   1.000000
     10         -0.408698   1.000000
     11         -0.090133   1.000000
     12          3.102580   0.000000
     13          3.531543   0.000000
     14         11.867983   0.000000
     15         13.822034   0.000000
     16         17.932575   0.000000
 
  0.2500000E+00  0.8333333E-01  0.0000000E+00  0.1736111E-02
      1         -3.483059   1.000000
      2         -1.586410   1.000000
      3         -1.347967   1.000000
      4         -1.119589   1.000000
      5         -0.936668   1.000000
      6         -0.770670   1.000000
      7         -0.619038   1.000000
      8         -0.510896   1.000000
      9         -0.268080   1.000000
     10         -0.146535   1.000000
     11         -0.089552   1.000000
     12          4.173928   0.000000
     13          4.403951   0.000000
     14          8.743266   0.000000
     15         12.651001   0.000000
     16         14.792463   0.000000
 
 -0.3333333E+00  0.8333333E-01  0.0000000E+00  0.1736111E-02
      1         -3.483073   1.000000
      2         -1.586418   1.000000
      3         -1.347951   1.000000
      4         -1.119480   1.000000
      5         -0.936606   1.000000
      6         -0.770709   1.000000
      7         -0.618998   1.000000
      8         -0.510784   1.000000
      9         -0.268251   1.000000
     10         -0.146671   1.000000
     11         -0.089592   1.000000
     12          4.173961   0.000000
     13          4.403990   0.000000
     14          8.743248   0.000000
     15         12.651052   0.000000
     16         14.792450   0.000000
 
  0.3333333E+00  0.8333333E-01  0.0000000E+00  0.1736111E-02
      1         -2.487267   1.000000
      2         -1.654902   1.000000
      3         -1.499567   1.000000
      4         -1.007980   1.000000
      5         -0.833852   1.000000
      6         -0.807222   1.000000
      7         -0.717676   1.000000
      8         -0.242626   1.000000
      9         -0.091382   1.000000
     10         -0.088954   1.000000
     11          0.275640   1.000000
     12          4.994719   0.000000
     13          5.915307   0.000000
     14          6.207359   0.000000
     15         11.797262   0.000000
     16         11.958446   0.000000
 
 -0.4166667E+00  0.8333333E-01  0.0000000E+00  0.1736111E-02
      1         -2.487295   1.000000
      2         -1.654906   1.000000
      3         -1.499561   1.000000
      4         -1.007890   1.000000
      5         -0.833873   1.000000
      6         -0.807172   1.000000
      7         -0.717654   1.000000
      8         -0.242479   1.000000
      9         -0.091402   1.000000
     10         -0.089120   1.000000
     11          0.275512   1.000000
     12          4.994756   0.000000
     13          5.915340   0.000000
     14          6.207347   0.000000
     15         11.797307   0.000000
     16         11.958421   0.000000
 
  0.4166667E+00  0.8333333E-01  0.0000000E+00  0.1736111E-02
      1         -1.978143   1.000000
      2         -1.741115   1.000000
      3         -1.570128   1.000000
      4         -0.858883   1.000000
      5         -0.790207   1.000000
      6         -0.785485   1.000000
      7         -0.718772   1.000000
      8         -0.093275   1.000000
      9         -0.050588   1.000000
     10         -0.006405   1.000000
     11          1.298954   0.865103
     12          3.352329   0.000000
     13          6.956863   0.000000
     14          7.463016   0.000000
     15          9.544240   0.000000
     16         10.568656   0.000000
 
  0.5000000E+00  0.8333333E-01  0.0000000E+00  0.1736111E-02
      1         -1.978158   1.000000
      2         -1.741115   1.000000
      3         -1.570127   1.000000
      4         -0.858891   1.000000
      5         -0.790191   1.000000
      6         -0.785476   1.000000
      7         -0.718733   1.000000
      8         -0.093282   1.000000
      9         -0.050459   1.000000
     10         -0.006547   1.000000
     11          1.298908   0.865384
     12          3.352343   0.000000
     13          6.956877   0.000000
     14          7.463037   0.000000
     15          9.544230   0.000000
     16         10.568636   0.000000
 
 -0.1121385E-17  0.1666667E+00  0.0000000E+00  0.1736111E-02
      1         -4.991979   1.000000
      2         -1.953502   1.000000
      3         -1.061652   1.000000
      4         -0.892946   1.000000
      5         -0.884935   1.000000
      6         -0.748892   1.000000
      7         -0.643952   1.000000
      8         -0.569327   1.000000
      9         -0.544845   1.000000
     10         -0.527813   1.000000
     11         -0.084247   1.000000
     12          2.340386   0.000000
     13          3.270790   0.000000
     14         13.447782   0.000000
     15         16.492703   0.000000
     16         18.838537   0.000000
 
 -0.1666667E+00  0.1666667E+00  0.0000000E+00  0.1736111E-02
      1         -4.991982   1.000000
      2         -1.953473   1.000000
      3         -1.061610   1.000000
      4         -0.892871   1.000000
      5         -0.884800   1.000000
      6         -0.748845   1.000000
      7         -0.644068   1.000000
      8         -0.569489   1.000000
      9         -0.544806   1.000000
     10         -0.527888   1.000000
     11         -0.084343   1.000000
     12          2.340454   0.000000
     13          3.270807   0.000000
     14         13.447839   0.000000
     15         16.492515   0.000000
     16         18.838814   0.000000
 
  0.8333333E-01  0.1666667E+00  0.0000000E+00  0.1736111E-02
      1         -4.462497   1.000000
      2         -1.734615   1.000000
      3         -1.131177   1.000000
      4         -1.103926   1.000000
      5         -0.915356   1.000000
      6         -0.713190   1.000000
      7         -0.678893   1.000000
      8         -0.521392   1.000000
      9         -0.490929   1.000000
     10         -0.408556   1.000000
     11         -0.090058   1.000000
     12          3.102495   0.000000
     13          3.531507   0.000000
     14         11.867237   0.000000
     15         13.822858   0.000000
     16         17.931800   0.000000
 
 -0.2500000E+00  0.1666667E+00  0.0000000E+00  0.1736111E-02
      1         -4.462504   1.000000
      2         -1.734561   1.000000
      3         -1.131114   1.000000
      4         -1.103845   1.000000
      5         -0.915183   1.000000
      6         -0.713165   1.000000
      7         -0.678969   1.000000
      8         -0.521360   1.000000
      9         -0.491120   1.000000
     10         -0.408724   1.000000
     11         -0.090162   1.000000
     12          3.102585   0.000000
     13          3.531544   0.000000
     14         11.867279   0.000000
     15         13.822822   0.000000
     16         17.931884   0.000000
 
  0.1666667E+00  0.1666667E+00  0.0000000E+00  0.1736111E-02
      1         -3.628166   1.000000
      2         -1.486660   1.000000
      3         -1.297836   1.000000
      4         -1.249607   1.000000
      5         -0.926516   1.000000
      6         -0.801532   1.000000
      7         -0.642962   1.000000
      8         -0.569136   1.000000
      9         -0.273814   1.000000
     10         -0.130396   1.000000
     11         -0.110048   1.000000
     12          4.076619   0.000000
     13          4.208307   0.000000
     14         10.425151   0.000000
     15         10.774319   0.000000
     16         16.679896   0.000000
 
 -0.3333333E+00  0.1666667E+00  0.0000000E+00  0.1736111E-02
      1         -3.628184   1.000000
      2         -1.486610   1.000000
      3         -1.297780   1.000000
      4         -1.249515   1.000000
      5         -0.926372   1.000000
      6         -0.801592   1.000000
      7         -0.642927   1.000000
      8         -0.569108   1.000000
      9         -0.274049   1.000000
     10         -0.130542   1.000000
     11         -0.110126   1.000000
     12          4.076674   0.000000
     13          4.208396   0.000000
     14         10.425020   0.000000
     15         10.774482   0.000000
     16         16.679963   0.000000
 
  0.2500000E+00  0.1666667E+00  0.0000000E+00  0.1736111E-02
      1         -2.634345   1.000000
      2         -1.464960   1.000000
      3         -1.431755   1.000000
      4         -1.231370   1.000000
      5         -0.880824   1.000000
      6         -0.861102   1.000000
      7         -0.665176   1.000000
      8         -0.488358   1.000000
      9         -0.129256   1.000000
     10         -0.097725   1.000000
     11          0.290265   1.000000
     12          4.998035   0.000000
     13          5.585491   0.000000
     14          7.649053   0.000000
     15          9.659923   0.000000
     16         13.683123   0.000000
 
 -0.4166667E+00  0.1666667E+00  0.0000000E+00  0.1736111E-02
      1         -2.634388   1.000000
      2         -1.464957   1.000000
      3         -1.431725   1.000000
      4         -1.231214   1.000000
      5         -0.880855   1.000000
      6         -0.861015   1.000000
      7         -0.665164   1.000000
      8         -0.488264   1.000000
      9         -0.129303   1.000000
     10         -0.097967   1.000000
     11          0.290140   1.000000
     12          4.998099   0.000000
     13          5.585571   0.000000
     14          7.649014   0.000000
     15          9.659995   0.000000
     16         13.683092   0.000000
 
  0.3333333E+00  0.1666667E+00  0.0000000E+00  0.1736111E-02
      1         -1.907951   1.000000
      2         -1.564294   1.000000
      3         -1.503771   1.000000
      4         -1.066205   1.000000
      5         -0.903084   1.000000
      6         -0.775043   1.000000
      7         -0.749473   1.000000
      8         -0.277449   1.000000
      9         -0.142357   1.000000
     10         -0.031927   1.000000
     11          1.105856   1.000000
     12          4.831470   0.000000
     13          6.612871   0.000000
     14          7.162657   0.000000
     15          9.050431   0.000000
     16         11.020272   0.000000
 
  0.5000000E+00  0.1666667E+00  0.0000000E+00  0.1736111E-02
      1         -1.908009   1.000000
      2         -1.564290   1.000000
      3         -1.503760   1.000000
      4         -1.066090   1.000000
      5         -0.903090   1.000000
      6         -0.775045   1.000000
      7         -0.749434   1.000000
      8         -0.277304   1.000000
      9         -0.142378   1.000000
     10         -0.032143   1.000000
     11          1.105781   1.000000
     12          4.831482   0.000000
     13          6.612902   0.000000
     14          7.162726   0.000000
     15          9.050468   0.000000
     16         11.020242   0.000000
 
  0.4166667E+00  0.1666667E+00  0.0000000E+00  0.1736111E-02
      1         -1.729104   1.000000
      2         -1.610737   1.000000
      3         -1.525868   1.000000
      4         -0.928636   1.000000
      5         -0.869897   1.000000
      6         -0.857396   1.000000
      7         -0.706739   1.000000
      8         -0.147140   1.000000
      9         -0.133093   1.000000
     10         -0.065110   1.000000
     11          2.410391   0.000000
     12          2.971018   0.000000
     13          7.902367   0.000000
     14          8.339939   0.000000
     15          8.841288   0.000000
     16          9.242915   0.000000
 
 -0.8333333E-01  0.1666667E+00  0.0000000E+00  0.1736111E-02
      1         -5.172062   1.000000
      2         -2.037307   1.000000
      3         -1.048857   1.000000
      4         -0.831789   1.000000
      5         -0.824686   1.000000
      6         -0.778597   1.000000
      7         -0.684673   1.000000
      8         -0.601574   1.000000
      9         -0.575180   1.000000
     10         -0.453638   1.000000
     11         -0.093191   1.000000
     12          2.054821   0.000000
     13          3.196025   0.000000
     14         15.161534   0.000000
     15         15.379419   0.000000
     16         19.717268   0.000000
 
 -0.1830767E-16  0.2500000E+00  0.0000000E+00  0.1736111E-02
      1         -4.125561   1.000000
      2         -1.686659   1.000000
      3         -1.220477   1.000000
      4         -1.082411   1.000000
      5         -0.959449   1.000000
      6         -0.640370   1.000000
      7         -0.626134   1.000000
      8         -0.559375   1.000000
      9         -0.433204   1.000000
     10         -0.377725   1.000000
     11         -0.074416   1.000000
     12          3.554654   0.000000
     13          3.719986   0.000000
     14         10.157736   0.000000
     15         15.004347   0.000000
     16         16.219592   0.000000
 
 -0.2500000E+00  0.2500000E+00  0.0000000E+00  0.1736111E-02
      1         -4.125566   1.000000
      2         -1.686544   1.000000
      3         -1.220384   1.000000
      4         -1.082437   1.000000
      5         -0.959322   1.000000
      6         -0.640481   1.000000
      7         -0.626114   1.000000
      8         -0.559361   1.000000
      9         -0.433329   1.000000
     10         -0.377882   1.000000
     11         -0.074494   1.000000
     12          3.554762   0.000000
     13          3.720026   0.000000
     14         10.157803   0.000000
     15         15.004149   0.000000
     16         16.219664   0.000000
 
  0.8333333E-01  0.2500000E+00  0.0000000E+00  0.1736111E-02
      1         -3.483121   1.000000
      2         -1.586457   1.000000
      3         -1.347960   1.000000
      4         -1.119595   1.000000
      5         -0.936723   1.000000
      6         -0.770673   1.000000
      7         -0.619006   1.000000
      8         -0.510872   1.000000
      9         -0.268064   1.000000
     10         -0.146527   1.000000
     11         -0.089542   1.000000
     12          4.173890   0.000000
     13          4.403865   0.000000
     14          8.742622   0.000000
     15         12.651868   0.000000
     16         14.791800   0.000000
 
 -0.3333333E+00  0.2500000E+00  0.0000000E+00  0.1736111E-02
      1         -3.483134   1.000000
      2         -1.586311   1.000000
      3         -1.347864   1.000000
      4         -1.119571   1.000000
      5         -0.936613   1.000000
      6         -0.770763   1.000000
      7         -0.619010   1.000000
      8         -0.510854   1.000000
      9         -0.268287   1.000000
     10         -0.146686   1.000000
     11         -0.089624   1.000000
     12          4.173952   0.000000
     13          4.404003   0.000000
     14          8.742686   0.000000
     15         12.651808   0.000000
     16         14.791850   0.000000
 
  0.1666667E+00  0.2500000E+00  0.0000000E+00  0.1736111E-02
      1         -2.634376   1.000000
      2         -1.464978   1.000000
      3         -1.431752   1.000000
      4         -1.231375   1.000000
      5         -0.880825   1.000000
      6         -0.861135   1.000000
      7         -0.665158   1.000000
      8         -0.488346   1.000000
      9         -0.129252   1.000000
     10         -0.097722   1.000000
     11          0.290264   1.000000
     12          4.998009   0.000000
     13          5.585440   0.000000
     14          7.648434   0.000000
     15          9.660648   0.000000
     16         13.682476   0.000000
 
 -0.4166667E+00  0.2500000E+00  0.0000000E+00  0.1736111E-02
      1         -2.634409   1.000000
      2         -1.464818   1.000000
      3         -1.431675   1.000000
      4         -1.231349   1.000000
      5         -0.880891   1.000000
      6         -0.861035   1.000000
      7         -0.665171   1.000000
      8         -0.488326   1.000000
      9         -0.129313   1.000000
     10         -0.097984   1.000000
     11          0.290148   1.000000
     12          4.998077   0.000000
     13          5.585587   0.000000
     14          7.648486   0.000000
     15          9.660645   0.000000
     16         13.682501   0.000000
 
  0.2500000E+00  0.2500000E+00  0.0000000E+00  0.1736111E-02
      1         -1.850698   1.000000
      2         -1.464024   1.000000
      3         -1.351653   1.000000
      4         -1.341997   1.000000
      5         -0.940812   1.000000
      6         -0.758787   1.000000
      7         -0.754912   1.000000
      8         -0.409149   1.000000
      9         -0.168900   1.000000
     10         -0.036820   1.000000
     11          1.068297   1.000000
     12          6.090595   0.000000
     13          6.918158   0.000000
     14          7.045178   0.000000
     15          7.053252   0.000000
     16         12.817012   0.000000
 
  0.5000000E+00  0.2500000E+00  0.0000000E+00  0.1736111E-02
      1         -1.850772   1.000000
      2         -1.463977   1.000000
      3         -1.351587   1.000000
      4         -1.341889   1.000000
      5         -0.940836   1.000000
      6         -0.758816   1.000000
      7         -0.754846   1.000000
      8         -0.409075   1.000000
      9         -0.168934   1.000000
     10         -0.037070   1.000000
     11          1.068230   1.000000
     12          6.090588   0.000000
     13          6.918118   0.000000
     14          7.045328   0.000000
     15          7.053418   0.000000
     16         12.816877   0.000000
 
  0.3333333E+00  0.2500000E+00  0.0000000E+00  0.1736111E-02
      1         -1.533981   1.000000
      2         -1.466757   1.000000
      3         -1.421019   1.000000
      4         -1.173395   1.000000
      5         -0.936366   1.000000
      6         -0.861809   1.000000
      7         -0.674669   1.000000
      8         -0.272527   1.000000
      9         -0.192383   1.000000
     10         -0.094689   1.000000
     11          2.431803   0.000000
     12          4.391741   0.000000
     13          6.471369   0.000000
     14          8.061323   0.000000
     15          8.656216   0.000000
     16         10.470153   0.000000
 
  0.4166667E+00  0.2500000E+00  0.0000000E+00  0.1736111E-02
      1         -1.534008   1.000000
      2         -1.466741   1.000000
      3         -1.421016   1.000000
      4         -1.173338   1.000000
      5         -0.936351   1.000000
      6         -0.861843   1.000000
      7         -0.674649   1.000000
      8         -0.272401   1.000000
      9         -0.192394   1.000000
     10         -0.094876   1.000000
     11          2.431779   0.000000
     12          4.391729   0.000000
     13          6.471394   0.000000
     14          8.061396   0.000000
     15          8.656349   0.000000
     16         10.470090   0.000000
 
 -0.1666667E+00  0.2500000E+00  0.0000000E+00  0.1736111E-02
      1         -4.462544   1.000000
      2         -1.734582   1.000000
      3         -1.131152   1.000000
      4         -1.103822   1.000000
      5         -0.915204   1.000000
      6         -0.713206   1.000000
      7         -0.678949   1.000000
      8         -0.521373   1.000000
      9         -0.491076   1.000000
     10         -0.408684   1.000000
     11         -0.090163   1.000000
     12          3.102531   0.000000
     13          3.531526   0.000000
     14         11.867430   0.000000
     15         13.822264   0.000000
     16         17.932049   0.000000
 
 -0.8333333E-01  0.2500000E+00  0.0000000E+00  0.1736111E-02
      1         -4.462543   1.000000
      2         -1.734628   1.000000
      3         -1.131127   1.000000
      4         -1.103868   1.000000
      5         -0.915285   1.000000
      6         -0.713158   1.000000
      7         -0.678933   1.000000
      8         -0.521347   1.000000
      9         -0.491042   1.000000
     10         -0.408643   1.000000
     11         -0.090128   1.000000
     12          3.102488   0.000000
     13          3.531514   0.000000
     14         11.867360   0.000000
     15         13.822365   0.000000
     16         17.931939   0.000000
 
 -0.2161616E-16  0.3333333E+00  0.0000000E+00  0.1736111E-02
      1         -3.072627   1.000000
      2         -1.667101   1.000000
      3         -1.439182   1.000000
      4         -1.025820   1.000000
      5         -0.866005   1.000000
      6         -0.749613   1.000000
      7         -0.701006   1.000000
      8         -0.218780   1.000000
      9         -0.212178   1.000000
     10         -0.175590   1.000000
     11         -0.070420   1.000000
     12          4.493192   0.000000
     13          4.981701   0.000000
     14          7.227450   0.000000
     15         13.196507   0.000000
     16         13.864405   0.000000
 
 -0.3333333E+00  0.3333333E+00  0.0000000E+00  0.1736111E-02
      1         -3.072623   1.000000
      2         -1.666939   1.000000
      3         -1.439070   1.000000
      4         -1.025789   1.000000
      5         -0.866019   1.000000
      6         -0.749755   1.000000
      7         -0.700997   1.000000
      8         -0.218771   1.000000
      9         -0.212320   1.000000
     10         -0.175740   1.000000
     11         -0.070486   1.000000
     12          4.493232   0.000000
     13          4.981876   0.000000
     14          7.227558   0.000000
     15         13.196537   0.000000
     16         13.864207   0.000000
 
  0.8333333E-01  0.3333333E+00  0.0000000E+00  0.1736111E-02
      1         -2.487347   1.000000
      2         -1.654937   1.000000
      3         -1.499560   1.000000
      4         -1.008018   1.000000
      5         -0.833865   1.000000
      6         -0.807277   1.000000
      7         -0.717622   1.000000