       N       E                     dE             d eps       ncg     rms          rms(c)
DAV:   1    -0.804734465526E+03   -0.80473E+03   -0.21155E+04 12528   0.296E+03
DAV:   2    -0.930412684859E+03   -0.12568E+03   -0.12523E+03 14760   0.462E+02
DAV:   3    -0.933127882419E+03   -0.27152E+01   -0.25988E+01 14312   0.491E+01
DAV:   4    -0.933293468197E+03   -0.16559E+00   -0.15658E+00 20256   0.113E+01
DAV:   5    -0.933294383296E+03   -0.91510E-03   -0.91497E-03 12928   0.103E+00    0.111E+02
DAV:   6    -0.195553645090E+03    0.73774E+03   -0.57411E+02 13448   0.175E+02    0.537E+01
DAV:   7    -0.871822363557E+02    0.10837E+03   -0.15590E+03 11952   0.292E+02    0.648E+01
DAV:   8    -0.140321254515E+03   -0.53139E+02   -0.23368E+03 11840   0.967E+02    0.483E+01
DAV:   9    -0.334883721016E+02    0.10683E+03   -0.21421E+02 12048   0.148E+02    0.262E+01
DAV:  10    -0.179777173374E+02    0.15511E+02   -0.11561E+01 15632   0.457E+01    0.190E+01
DAV:  11    -0.128306225378E+02    0.51471E+01   -0.26845E+00 14736   0.244E+01    0.150E+01
DAV:  12    -0.738780783006E+01    0.54428E+01   -0.70317E+00 13712   0.421E+01    0.560E+00
DAV:  13    -0.676630332079E+01    0.62150E+00   -0.10826E+00 15128   0.169E+01    0.192E+00
DAV:  14    -0.676742822739E+01   -0.11249E-02   -0.25311E-02 12824   0.109E+00    0.181E+00
DAV:  15    -0.672941150832E+01    0.38017E-01   -0.67260E-01 12032   0.145E+01    0.138E+00
DAV:  16    -0.669528859886E+01    0.34123E-01   -0.17797E-01 12192   0.787E+00    0.315E-01
DAV:  17    -0.669853652246E+01   -0.32479E-02   -0.46097E-02 12120   0.395E+00    0.520E-01
DAV:  18    -0.669359941847E+01    0.49371E-02   -0.77113E-03 13312   0.165E+00    0.170E-01
DAV:  19    -0.669335140941E+01    0.24801E-03   -0.15484E-04  8104   0.184E-01    0.125E-01
DAV:  20    -0.669305769399E+01    0.29372E-03   -0.16572E-03 12648   0.704E-01    0.343E-02
DAV:  21    -0.669303531606E+01    0.22378E-04   -0.68689E-05  6288   0.151E-01
   1 F= -.66930353E+01 E0= -.66923569E+01  d E =-.135678E-02
