 vasp.6.3.0 20Jan22 (build Sep 29 2023 15:57:01) complex                        
  
 executed on             LinuxIFC date 2023.11.06  17:40:17
 running on    2 total cores
 distrk:  each k-point on    2 cores,    1 groups
 distr:  one band on NCORE=   1 cores,    2 groups


--------------------------------------------------------------------------------------------------------


 INCAR:
   SYSTEM = sc Cu
   ISTART = 0
   ICHARG = 0
   ENCUT = 292
   ISMEAR = 0
   SIGMA = 0.05

 POTCAR:   PAW_GGA Cu 05Jan2001                   
 POTCAR:   PAW_GGA Cu 05Jan2001                   
   VRHFIN =Cu: d10 p1                                                                               
   LEXCH  = 91                                                                                      
   EATOM  =  1393.0707 eV,  102.3878 Ry                                                             
                                                                                                    
   TITEL  = PAW_GGA Cu 05Jan2001                                                                    
   LULTRA =        F    use ultrasoft PP ?                                                          
   IUNSCR =        1    unscreen: 0-lin 1-nonlin 2-no                                               
   RPACOR =    2.000    partial core radius                                                         
   POMASS =   63.546; ZVAL   =   11.000    mass and valenz                                          
   RCORE  =    2.300    outmost cutoff radius                                                       
   RWIGS  =    2.480; RWIGS  =    1.312    wigner-seitz radius (au A)                               
   ENMAX  =  273.246; ENMIN  =  204.934 eV                                                          
   RCLOC  =    1.712    cutoff for local pot                                                        
   LCOR   =        T    correct aug charges                                                         
   LPAW   =        T    paw PP                                                                      
   EAUG   =  516.456                                                                                
   DEXC   =    -.002                                                                                
   RMAX   =    2.789    core radius for proj-oper                                                   
   RAUG   =    1.300    factor for augmentation sphere                                              
   RDEP   =    2.302    core radius for depl-charge                                                 
   QCUT   =   -4.481; QGAM   =    8.963    optimization parameters                                  
                                                                                                    
   Description                                                                                      
     l     E      TYP  RCUT    TYP  RCUT                                                            
     2   .000     23  2.300                                                                         
     2   .000     23  2.300                                                                         
     0   .000     23  2.300                                                                         
     0   .000     23  2.300                                                                         
     1  -.200     23  2.300                                                                         
     1   .000     23  2.300                                                                         
     3   .000      7   .000                                                                         
  local pseudopotential read in
  partial core-charges read in
  atomic valenz-charges read in
  non local Contribution for L=           2  read in
    real space projection operators read in
  non local Contribution for L=           2  read in
    real space projection operators read in
  non local Contribution for L=           0  read in
    real space projection operators read in
  non local Contribution for L=           0  read in
    real space projection operators read in
  non local Contribution for L=           1  read in
    real space projection operators read in
  non local Contribution for L=           1  read in
    real space projection operators read in
    PAW grid and wavefunctions read in
 
   number of l-projection  operators is LMAX  =           6
   number of lm-projection operators is LMMAX =          18
 
 PAW_GGA Cu 05Jan2001                   :
 energy of atom  1       EATOM=-1393.0707
 kinetic energy error for atom=    0.0324 (will be added to EATOM!!)
 
 
 POSCAR: hcp Cu
  positions in direct lattice
  No initial velocities read in
 exchange correlation table for  LEXCH =        7
   RHO(1)=    0.500       N(1)  =     2000
   RHO(2)=  100.500       N(2)  =     4000
 


--------------------------------------------------------------------------------------------------------


 ion  position               nearest neighbor table
   1  0.000  0.000  0.000-   2 2.92   2 2.92   2 2.92   2 2.92   2 2.92   2 2.92
   2  0.667  0.333  0.500-   1 2.92   1 2.92   1 2.92   1 2.92   1 2.92   1 2.92
 
  LATTYP: Found a base centered orthorhombic cell.
 ALAT       =     2.8000000000
 B/A-ratio  =     1.7320000000
 C/A-ratio  =     1.7400000000
  
  Lattice vectors:
  
 A1 = (   2.4248000000,   1.4000000000,   0.0000000000)
 A2 = (  -2.4248000000,   1.4000000000,   0.0000000000)
 A3 = (   0.0000000000,   0.0000000000,   4.8720000000)


Analysis of symmetry for initial positions (statically):
=====================================================================
 Subroutine PRICEL returns:
 Original cell was already a primitive cell.
 

 Routine SETGRP: Setting up the symmetry group for a 
 base centered orthorhombic supercell.


 Subroutine GETGRP returns: Found  4 space group operations
 (whereof  2 operations were pure point group operations)
 out of a pool of  8 trial point group operations.


The static configuration has the point symmetry C_1h.
 The point group associated with its full space group is C_2h.


Analysis of symmetry for dynamics (positions and initial velocities):
=====================================================================
 Subroutine PRICEL returns:
 Original cell was already a primitive cell.
 

 Routine SETGRP: Setting up the symmetry group for a 
 base centered orthorhombic supercell.


 Subroutine GETGRP returns: Found  4 space group operations
 (whereof  2 operations were pure point group operations)
 out of a pool of  8 trial point group operations.


The dynamic configuration has the point symmetry C_1h.
 The point group associated with its full space group is C_2h.


 Subroutine INISYM returns: Found  4 space group operations
 (whereof  2 operations are pure point group operations),
 and found     1 'primitive' translations


----------------------------------------------------------------------------------------

                                     Primitive cell                                     

  volume of cell :      33.0782

  direct lattice vectors                    reciprocal lattice vectors
     2.424800000 -1.400000000  0.000000000     0.412405147  0.000000000  0.000000000
     0.000000000  2.800000000  0.000000000     0.206202573  0.357142857  0.000000000
     0.000000000  0.000000000  4.872000000     0.000000000  0.000000000  0.205254516

  length of vectors
     2.799938399  2.800000000  4.872000000     0.412405147  0.412396074  0.205254516

  position of ions in fractional coordinates (direct lattice)
     0.000000000  0.000000000  0.000000000
     0.666700000  0.333300000  0.500000000

  ion indices of the primitive-cell ions
   primitive index   ion index
                 1           1
                 2           2

----------------------------------------------------------------------------------------

 
 
 KPOINTS: K-Points                                

Automatic generation of k-mesh.
 Grid dimensions read from file:
 generate k-points for:   12   12    8

 Generating k-lattice:

  Cartesian coordinates                     Fractional coordinates (reciprocal lattice)
     0.034367096  0.000000000  0.000000000     0.083333333  0.000000000  0.000000000
     0.017183548  0.029761905  0.000000000     0.000000000  0.083333333  0.000000000
     0.000000000  0.000000000  0.025656814     0.000000000  0.000000000  0.125000000

  Length of vectors
     0.034367096  0.034366339  0.025656814

  Shift w.r.t. Gamma in fractional coordinates (k-lattice)
     0.000000000  0.000000000  0.000000000

 
 Subroutine IBZKPT returns following result:
 ===========================================
 
 Found    370 irreducible k-points:
 
 Following reciprocal coordinates:
            Coordinates               Weight
  0.000000  0.000000  0.000000      1.000000
  0.083333  0.000000  0.000000      2.000000
  0.166667  0.000000  0.000000      2.000000
  0.250000  0.000000  0.000000      2.000000
  0.333333  0.000000  0.000000      2.000000
  0.416667  0.000000  0.000000      2.000000
  0.500000  0.000000  0.000000      1.000000
 -0.000000  0.083333  0.000000      2.000000
 -0.083333  0.083333  0.000000      2.000000
  0.083333  0.083333  0.000000      2.000000
 -0.166667  0.083333  0.000000      2.000000
  0.166667  0.083333  0.000000      2.000000
 -0.250000  0.083333  0.000000      2.000000
  0.250000  0.083333  0.000000      2.000000
 -0.333333  0.083333  0.000000      2.000000
  0.333333  0.083333  0.000000      2.000000
 -0.416667  0.083333  0.000000      2.000000
  0.416667  0.083333  0.000000      2.000000
  0.500000  0.083333  0.000000      2.000000
 -0.000000  0.166667  0.000000      2.000000
 -0.166667  0.166667  0.000000      2.000000
  0.083333  0.166667  0.000000      2.000000
 -0.250000  0.166667  0.000000      2.000000
  0.166667  0.166667  0.000000      2.000000
 -0.333333  0.166667  0.000000      2.000000
  0.250000  0.166667  0.000000      2.000000
 -0.416667  0.166667  0.000000      2.000000
  0.333333  0.166667  0.000000      2.000000
  0.500000  0.166667  0.000000      2.000000
  0.416667  0.166667  0.000000      2.000000
 -0.083333  0.166667  0.000000      2.000000
 -0.000000  0.250000  0.000000      2.000000
 -0.250000  0.250000  0.000000      2.000000
  0.083333  0.250000  0.000000      2.000000
 -0.333333  0.250000  0.000000      2.000000
  0.166667  0.250000  0.000000      2.000000
 -0.416667  0.250000  0.000000      2.000000
  0.250000  0.250000  0.000000      2.000000
  0.500000  0.250000  0.000000      2.000000
  0.333333  0.250000  0.000000      2.000000
  0.416667  0.250000  0.000000      2.000000
 -0.166667  0.250000  0.000000      2.000000
 -0.083333  0.250000  0.000000      2.000000
 -0.000000  0.333333  0.000000      2.000000
 -0.333333  0.333333  0.000000      2.000000
  0.083333  0.333333  0.000000      2.000000
 -0.416667  0.333333  0.000000      2.000000
  0.166667  0.333333  0.000000      2.000000
  0.500000  0.333333  0.000000      2.000000
  0.250000  0.333333  0.000000      2.000000
  0.416667  0.333333  0.000000      2.000000
  0.333333  0.333333  0.000000      2.000000
 -0.250000  0.333333  0.000000      2.000000
 -0.083333  0.333333  0.000000      2.000000
 -0.166667  0.333333  0.000000      2.000000
 -0.000000  0.416667  0.000000      2.000000
 -0.416667  0.416667  0.000000      2.000000
  0.083333  0.416667  0.000000      2.000000
  0.500000  0.416667  0.000000      2.000000
  0.166667  0.416667  0.000000      2.000000
  0.416667  0.416667  0.000000      2.000000
  0.250000  0.416667  0.000000      2.000000
  0.333333  0.416667  0.000000      2.000000
 -0.333333  0.416667  0.000000      2.000000
 -0.083333  0.416667  0.000000      2.000000
 -0.250000  0.416667  0.000000      2.000000
 -0.166667  0.416667  0.000000      2.000000
 -0.000000  0.500000  0.000000      1.000000
  0.500000  0.500000  0.000000      1.000000
  0.083333  0.500000  0.000000      2.000000
  0.416667  0.500000  0.000000      2.000000
  0.166667  0.500000  0.000000      2.000000
  0.333333  0.500000  0.000000      2.000000
  0.250000  0.500000  0.000000      2.000000
  0.000000  0.000000  0.125000      2.000000
  0.083333  0.000000  0.125000      4.000000
  0.166667  0.000000  0.125000      4.000000
  0.250000  0.000000  0.125000      4.000000
  0.333333  0.000000  0.125000      4.000000
  0.416667  0.000000  0.125000      4.000000
  0.500000  0.000000  0.125000      2.000000
 -0.000000  0.083333  0.125000      4.000000
 -0.083333  0.083333 -0.125000      4.000000
  0.083333  0.083333  0.125000      4.000000
 -0.166667  0.083333 -0.125000      4.000000
  0.166667  0.083333  0.125000      4.000000
 -0.250000  0.083333 -0.125000      4.000000
  0.250000  0.083333  0.125000      4.000000
 -0.333333  0.083333 -0.125000      4.000000
  0.333333  0.083333  0.125000      4.000000
 -0.416667  0.083333 -0.125000      4.000000
  0.416667  0.083333  0.125000      4.000000
  0.500000  0.083333 -0.125000      4.000000
 -0.000000  0.166667  0.125000      4.000000
 -0.166667  0.166667 -0.125000      4.000000
  0.083333  0.166667  0.125000      4.000000
 -0.250000  0.166667 -0.125000      4.000000
  0.166667  0.166667  0.125000      4.000000
 -0.333333  0.166667 -0.125000      4.000000
  0.250000  0.166667  0.125000      4.000000
 -0.416667  0.166667 -0.125000      4.000000
  0.333333  0.166667  0.125000      4.000000
  0.500000  0.166667 -0.125000      4.000000
  0.416667  0.166667  0.125000      4.000000
 -0.083333  0.166667  0.125000      4.000000
 -0.000000  0.250000  0.125000      4.000000
 -0.250000  0.250000 -0.125000      4.000000
  0.083333  0.250000  0.125000      4.000000
 -0.333333  0.250000 -0.125000      4.000000
  0.166667  0.250000  0.125000      4.000000
 -0.416667  0.250000 -0.125000      4.000000
  0.250000  0.250000  0.125000      4.000000
  0.500000  0.250000 -0.125000      4.000000
  0.333333  0.250000  0.125000      4.000000
  0.416667  0.250000 -0.125000      4.000000
 -0.166667  0.250000  0.125000      4.000000
 -0.083333  0.250000 -0.125000      4.000000
 -0.000000  0.333333  0.125000      4.000000
 -0.333333  0.333333 -0.125000      4.000000
  0.083333  0.333333  0.125000      4.000000
 -0.416667  0.333333 -0.125000      4.000000
  0.166667  0.333333  0.125000      4.000000
  0.500000  0.333333 -0.125000      4.000000
  0.250000  0.333333  0.125000      4.000000
  0.416667  0.333333 -0.125000      4.000000
  0.333333  0.333333  0.125000      4.000000
 -0.250000  0.333333  0.125000      4.000000
 -0.083333  0.333333 -0.125000      4.000000
 -0.166667  0.333333  0.125000      4.000000
 -0.000000  0.416667  0.125000      4.000000
 -0.416667  0.416667 -0.125000      4.000000
  0.083333  0.416667  0.125000      4.000000
  0.500000  0.416667 -0.125000      4.000000
  0.166667  0.416667  0.125000      4.000000
  0.416667  0.416667 -0.125000      4.000000
  0.250000  0.416667  0.125000      4.000000
  0.333333  0.416667 -0.125000      4.000000
 -0.333333  0.416667  0.125000      4.000000
 -0.083333  0.416667 -0.125000      4.000000
 -0.250000  0.416667  0.125000      4.000000
 -0.166667  0.416667 -0.125000      4.000000
 -0.000000  0.500000  0.125000      2.000000
  0.500000  0.500000 -0.125000      2.000000
  0.083333  0.500000  0.125000      4.000000
  0.416667  0.500000 -0.125000      4.000000
  0.166667  0.500000  0.125000      4.000000
  0.333333  0.500000 -0.125000      4.000000
  0.250000  0.500000  0.125000      4.000000
  0.000000  0.000000  0.250000      2.000000
  0.083333  0.000000  0.250000      4.000000
  0.166667  0.000000  0.250000      4.000000
  0.250000  0.000000  0.250000      4.000000
  0.333333  0.000000  0.250000      4.000000
  0.416667  0.000000  0.250000      4.000000
  0.500000  0.000000  0.250000      2.000000
 -0.000000  0.083333  0.250000      4.000000
 -0.083333  0.083333 -0.250000      4.000000
  0.083333  0.083333  0.250000      4.000000
 -0.166667  0.083333 -0.250000      4.000000
  0.166667  0.083333  0.250000      4.000000
 -0.250000  0.083333 -0.250000      4.000000
  0.250000  0.083333  0.250000      4.000000
 -0.333333  0.083333 -0.250000      4.000000
  0.333333  0.083333  0.250000      4.000000
 -0.416667  0.083333 -0.250000      4.000000
  0.416667  0.083333  0.250000      4.000000
  0.500000  0.083333 -0.250000      4.000000
 -0.000000  0.166667  0.250000      4.000000
 -0.166667  0.166667 -0.250000      4.000000
  0.083333  0.166667  0.250000      4.000000
 -0.250000  0.166667 -0.250000      4.000000
  0.166667  0.166667  0.250000      4.000000
 -0.333333  0.166667 -0.250000      4.000000
  0.250000  0.166667  0.250000      4.000000
 -0.416667  0.166667 -0.250000      4.000000
  0.333333  0.166667  0.250000      4.000000
  0.500000  0.166667 -0.250000      4.000000
  0.416667  0.166667  0.250000      4.000000
 -0.083333  0.166667  0.250000      4.000000
 -0.000000  0.250000  0.250000      4.000000
 -0.250000  0.250000 -0.250000      4.000000
  0.083333  0.250000  0.250000      4.000000
 -0.333333  0.250000 -0.250000      4.000000
  0.166667  0.250000  0.250000      4.000000
 -0.416667  0.250000 -0.250000      4.000000
  0.250000  0.250000  0.250000      4.000000
  0.500000  0.250000 -0.250000      4.000000
  0.333333  0.250000  0.250000      4.000000
  0.416667  0.250000 -0.250000      4.000000
 -0.166667  0.250000  0.250000      4.000000
 -0.083333  0.250000 -0.250000      4.000000
 -0.000000  0.333333  0.250000      4.000000
 -0.333333  0.333333 -0.250000      4.000000
  0.083333  0.333333  0.250000      4.000000
 -0.416667  0.333333 -0.250000      4.000000
  0.166667  0.333333  0.250000      4.000000
  0.500000  0.333333 -0.250000      4.000000
  0.250000  0.333333  0.250000      4.000000
  0.416667  0.333333 -0.250000      4.000000
  0.333333  0.333333  0.250000      4.000000
 -0.250000  0.333333  0.250000      4.000000
 -0.083333  0.333333 -0.250000      4.000000
 -0.166667  0.333333  0.250000      4.000000
 -0.000000  0.416667  0.250000      4.000000
 -0.416667  0.416667 -0.250000      4.000000
  0.083333  0.416667  0.250000      4.000000
  0.500000  0.416667 -0.250000      4.000000
  0.166667  0.416667  0.250000      4.000000
  0.416667  0.416667 -0.250000      4.000000
  0.250000  0.416667  0.250000      4.000000
  0.333333  0.416667 -0.250000      4.000000
 -0.333333  0.416667  0.250000      4.000000
 -0.083333  0.416667 -0.250000      4.000000
 -0.250000  0.416667  0.250000      4.000000
 -0.166667  0.416667 -0.250000      4.000000
 -0.000000  0.500000  0.250000      2.000000
  0.500000  0.500000 -0.250000      2.000000
  0.083333  0.500000  0.250000      4.000000
  0.416667  0.500000 -0.250000      4.000000
  0.166667  0.500000  0.250000      4.000000
  0.333333  0.500000 -0.250000      4.000000
  0.250000  0.500000  0.250000      4.000000
  0.000000  0.000000  0.375000      2.000000
  0.083333  0.000000  0.375000      4.000000
  0.166667  0.000000  0.375000      4.000000
  0.250000  0.000000  0.375000      4.000000
  0.333333  0.000000  0.375000      4.000000
  0.416667  0.000000  0.375000      4.000000
  0.500000  0.000000  0.375000      2.000000
 -0.000000  0.083333  0.375000      4.000000
 -0.083333  0.083333 -0.375000      4.000000
  0.083333  0.083333  0.375000      4.000000
 -0.166667  0.083333 -0.375000      4.000000
  0.166667  0.083333  0.375000      4.000000
 -0.250000  0.083333 -0.375000      4.000000
  0.250000  0.083333  0.375000      4.000000
 -0.333333  0.083333 -0.375000      4.000000
  0.333333  0.083333  0.375000      4.000000
 -0.416667  0.083333 -0.375000      4.000000
  0.416667  0.083333  0.375000      4.000000
  0.500000  0.083333 -0.375000      4.000000
 -0.000000  0.166667  0.375000      4.000000
 -0.166667  0.166667 -0.375000      4.000000
  0.083333  0.166667  0.375000      4.000000
 -0.250000  0.166667 -0.375000      4.000000
  0.166667  0.166667  0.375000      4.000000
 -0.333333  0.166667 -0.375000      4.000000
  0.250000  0.166667  0.375000      4.000000
 -0.416667  0.166667 -0.375000      4.000000
  0.333333  0.166667  0.375000      4.000000
  0.500000  0.166667 -0.375000      4.000000
  0.416667  0.166667  0.375000      4.000000
 -0.083333  0.166667  0.375000      4.000000
 -0.000000  0.250000  0.375000      4.000000
 -0.250000  0.250000 -0.375000      4.000000
  0.083333  0.250000  0.375000      4.000000
 -0.333333  0.250000 -0.375000      4.000000
  0.166667  0.250000  0.375000      4.000000
 -0.416667  0.250000 -0.375000      4.000000
  0.250000  0.250000  0.375000      4.000000
  0.500000  0.250000 -0.375000      4.000000
  0.333333  0.250000  0.375000      4.000000
  0.416667  0.250000 -0.375000      4.000000
 -0.166667  0.250000  0.375000      4.000000
 -0.083333  0.250000 -0.375000      4.000000
 -0.000000  0.333333  0.375000      4.000000
 -0.333333  0.333333 -0.375000      4.000000
  0.083333  0.333333  0.375000      4.000000
 -0.416667  0.333333 -0.375000      4.000000
  0.166667  0.333333  0.375000      4.000000
  0.500000  0.333333 -0.375000      4.000000
  0.250000  0.333333  0.375000      4.000000
  0.416667  0.333333 -0.375000      4.000000
  0.333333  0.333333  0.375000      4.000000
 -0.250000  0.333333  0.375000      4.000000
 -0.083333  0.333333 -0.375000      4.000000
 -0.166667  0.333333  0.375000      4.000000
 -0.000000  0.416667  0.375000      4.000000
 -0.416667  0.416667 -0.375000      4.000000
  0.083333  0.416667  0.375000      4.000000
  0.500000  0.416667 -0.375000      4.000000
  0.166667  0.416667  0.375000      4.000000
  0.416667  0.416667 -0.375000      4.000000
  0.250000  0.416667  0.375000      4.000000
  0.333333  0.416667 -0.375000      4.000000
 -0.333333  0.416667  0.375000      4.000000
 -0.083333  0.416667 -0.375000      4.000000
 -0.250000  0.416667  0.375000      4.000000
 -0.166667  0.416667 -0.375000      4.000000
 -0.000000  0.500000  0.375000      2.000000
  0.500000  0.500000 -0.375000      2.000000
  0.083333  0.500000  0.375000      4.000000
  0.416667  0.500000 -0.375000      4.000000
  0.166667  0.500000  0.375000      4.000000
  0.333333  0.500000 -0.375000      4.000000
  0.250000  0.500000  0.375000      4.000000
  0.000000  0.000000  0.500000      1.000000
  0.083333  0.000000  0.500000      2.000000
  0.166667  0.000000  0.500000      2.000000
  0.250000  0.000000  0.500000      2.000000
  0.333333  0.000000  0.500000      2.000000
  0.416667  0.000000  0.500000      2.000000
  0.500000  0.000000  0.500000      1.000000
 -0.000000  0.083333  0.500000      2.000000
 -0.083333  0.083333  0.500000      2.000000
  0.083333  0.083333  0.500000      2.000000
 -0.166667  0.083333  0.500000      2.000000
  0.166667  0.083333  0.500000      2.000000
 -0.250000  0.083333  0.500000      2.000000
  0.250000  0.083333  0.500000      2.000000
 -0.333333  0.083333  0.500000      2.000000
  0.333333  0.083333  0.500000      2.000000
 -0.416667  0.083333  0.500000      2.000000
  0.416667  0.083333  0.500000      2.000000
  0.500000  0.083333  0.500000      2.000000
 -0.000000  0.166667  0.500000      2.000000
 -0.166667  0.166667  0.500000      2.000000
  0.083333  0.166667  0.500000      2.000000
 -0.250000  0.166667  0.500000      2.000000
  0.166667  0.166667  0.500000      2.000000
 -0.333333  0.166667  0.500000      2.000000
  0.250000  0.166667  0.500000      2.000000
 -0.416667  0.166667  0.500000      2.000000
  0.333333  0.166667  0.500000      2.000000
  0.500000  0.166667  0.500000      2.000000
  0.416667  0.166667  0.500000      2.000000
 -0.083333  0.166667  0.500000      2.000000
 -0.000000  0.250000  0.500000      2.000000
 -0.250000  0.250000  0.500000      2.000000
  0.083333  0.250000  0.500000      2.000000
 -0.333333  0.250000  0.500000      2.000000
  0.166667  0.250000  0.500000      2.000000
 -0.416667  0.250000  0.500000      2.000000
  0.250000  0.250000  0.500000      2.000000
  0.500000  0.250000  0.500000      2.000000
  0.333333  0.250000  0.500000      2.000000
  0.416667  0.250000  0.500000      2.000000
 -0.166667  0.250000  0.500000      2.000000
 -0.083333  0.250000  0.500000      2.000000
 -0.000000  0.333333  0.500000      2.000000
 -0.333333  0.333333  0.500000      2.000000
  0.083333  0.333333  0.500000      2.000000
 -0.416667  0.333333  0.500000      2.000000
  0.166667  0.333333  0.500000      2.000000
  0.500000  0.333333  0.500000      2.000000
  0.250000  0.333333  0.500000      2.000000
  0.416667  0.333333  0.500000      2.000000
  0.333333  0.333333  0.500000      2.000000
 -0.250000  0.333333  0.500000      2.000000
 -0.083333  0.333333  0.500000      2.000000
 -0.166667  0.333333  0.500000      2.000000
 -0.000000  0.416667  0.500000      2.000000
 -0.416667  0.416667  0.500000      2.000000
  0.083333  0.416667  0.500000      2.000000
  0.500000  0.416667  0.500000      2.000000
  0.166667  0.416667  0.500000      2.000000
  0.416667  0.416667  0.500000      2.000000
  0.250000  0.416667  0.500000      2.000000
  0.333333  0.416667  0.500000      2.000000
 -0.333333  0.416667  0.500000      2.000000
 -0.083333  0.416667  0.500000      2.000000
 -0.250000  0.416667  0.500000      2.000000
 -0.166667  0.416667  0.500000      2.000000
 -0.000000  0.500000  0.500000      1.000000
  0.500000  0.500000  0.500000      1.000000
  0.083333  0.500000  0.500000      2.000000
  0.416667  0.500000  0.500000      2.000000
  0.166667  0.500000  0.500000      2.000000
  0.333333  0.500000  0.500000      2.000000
  0.250000  0.500000  0.500000      2.000000
 
 Following cartesian coordinates:
            Coordinates               Weight
  0.000000  0.000000  0.000000      1.000000
  0.096228  0.000000  0.000000      2.000000
  0.192456  0.000000  0.000000      2.000000
  0.288684  0.000000  0.000000      2.000000
  0.384911  0.000000  0.000000      2.000000
  0.481139  0.000000  0.000000      2.000000
  0.577367  0.000000  0.000000      1.000000
  0.048114  0.083333  0.000000      2.000000
 -0.048114  0.083333  0.000000      2.000000
  0.144342  0.083333  0.000000      2.000000
 -0.144342  0.083333  0.000000      2.000000
  0.240570  0.083333  0.000000      2.000000
 -0.240570  0.083333  0.000000      2.000000
  0.336798  0.083333  0.000000      2.000000
 -0.336798  0.083333  0.000000      2.000000
  0.433025  0.083333  0.000000      2.000000
 -0.433025  0.083333  0.000000      2.000000
  0.529253  0.083333  0.000000      2.000000
  0.625481  0.083333  0.000000      2.000000
  0.096228  0.166667  0.000000      2.000000
 -0.096228  0.166667  0.000000      2.000000
  0.192456  0.166667  0.000000      2.000000
 -0.192456  0.166667  0.000000      2.000000
  0.288684  0.166667  0.000000      2.000000
 -0.288684  0.166667  0.000000      2.000000
  0.384911  0.166667  0.000000      2.000000
 -0.384911  0.166667  0.000000      2.000000
  0.481139  0.166667  0.000000      2.000000
  0.673595  0.166667  0.000000      2.000000
  0.577367  0.166667  0.000000      2.000000
 -0.000000  0.166667  0.000000      2.000000
  0.144342  0.250000  0.000000      2.000000
 -0.144342  0.250000  0.000000      2.000000
  0.240570  0.250000  0.000000      2.000000
 -0.240570  0.250000  0.000000      2.000000
  0.336798  0.250000  0.000000      2.000000
 -0.336798  0.250000  0.000000      2.000000
  0.433025  0.250000  0.000000      2.000000
  0.721709  0.250000  0.000000      2.000000
  0.529253  0.250000  0.000000      2.000000
  0.625481  0.250000  0.000000      2.000000
 -0.048114  0.250000  0.000000      2.000000
  0.048114  0.250000  0.000000      2.000000
  0.192456  0.333333  0.000000      2.000000
 -0.192456  0.333333  0.000000      2.000000
  0.288684  0.333333  0.000000      2.000000
 -0.288684  0.333333  0.000000      2.000000
  0.384911  0.333333  0.000000      2.000000
  0.769823  0.333333  0.000000      2.000000
  0.481139  0.333333  0.000000      2.000000
  0.673595  0.333333  0.000000      2.000000
  0.577367  0.333333  0.000000      2.000000
 -0.096228  0.333333  0.000000      2.000000
  0.096228  0.333333  0.000000      2.000000
  0.000000  0.333333  0.000000      2.000000
  0.240570  0.416667  0.000000      2.000000
 -0.240570  0.416667  0.000000      2.000000
  0.336798  0.416667  0.000000      2.000000
  0.817937  0.416667  0.000000      2.000000
  0.433025  0.416667  0.000000      2.000000
  0.721709  0.416667  0.000000      2.000000
  0.529253  0.416667  0.000000      2.000000
  0.625481  0.416667  0.000000      2.000000
 -0.144342  0.416667  0.000000      2.000000
  0.144342  0.416667  0.000000      2.000000
 -0.048114  0.416667  0.000000      2.000000
  0.048114  0.416667  0.000000      2.000000
  0.288684  0.500000  0.000000      1.000000
  0.866051  0.500000  0.000000      1.000000
  0.384911  0.500000  0.000000      2.000000
  0.769823  0.500000  0.000000      2.000000
  0.481139  0.500000  0.000000      2.000000
  0.673595  0.500000  0.000000      2.000000
  0.577367  0.500000  0.000000      2.000000
  0.000000  0.000000  0.071839      2.000000
  0.096228  0.000000  0.071839      4.000000
  0.192456  0.000000  0.071839      4.000000
  0.288684  0.000000  0.071839      4.000000
  0.384911  0.000000  0.071839      4.000000
  0.481139  0.000000  0.071839      4.000000
  0.577367  0.000000  0.071839      2.000000
  0.048114  0.083333  0.071839      4.000000
 -0.048114  0.083333 -0.071839      4.000000
  0.144342  0.083333  0.071839      4.000000
 -0.144342  0.083333 -0.071839      4.000000
  0.240570  0.083333  0.071839      4.000000
 -0.240570  0.083333 -0.071839      4.000000
  0.336798  0.083333  0.071839      4.000000
 -0.336798  0.083333 -0.071839      4.000000
  0.433025  0.083333  0.071839      4.000000
 -0.433025  0.083333 -0.071839      4.000000
  0.529253  0.083333  0.071839      4.000000
  0.625481  0.083333 -0.071839      4.000000
  0.096228  0.166667  0.071839      4.000000
 -0.096228  0.166667 -0.071839      4.000000
  0.192456  0.166667  0.071839      4.000000
 -0.192456  0.166667 -0.071839      4.000000
  0.288684  0.166667  0.071839      4.000000
 -0.288684  0.166667 -0.071839      4.000000
  0.384911  0.166667  0.071839      4.000000
 -0.384911  0.166667 -0.071839      4.000000
  0.481139  0.166667  0.071839      4.000000
  0.673595  0.166667 -0.071839      4.000000
  0.577367  0.166667  0.071839      4.000000
 -0.000000  0.166667  0.071839      4.000000
  0.144342  0.250000  0.071839      4.000000
 -0.144342  0.250000 -0.071839      4.000000
  0.240570  0.250000  0.071839      4.000000
 -0.240570  0.250000 -0.071839      4.000000
  0.336798  0.250000  0.071839      4.000000
 -0.336798  0.250000 -0.071839      4.000000
  0.433025  0.250000  0.071839      4.000000
  0.721709  0.250000 -0.071839      4.000000
  0.529253  0.250000  0.071839      4.000000
  0.625481  0.250000 -0.071839      4.000000
 -0.048114  0.250000  0.071839      4.000000
  0.048114  0.250000 -0.071839      4.000000
  0.192456  0.333333  0.071839      4.000000
 -0.192456  0.333333 -0.071839      4.000000
  0.288684  0.333333  0.071839      4.000000
 -0.288684  0.333333 -0.071839      4.000000
  0.384911  0.333333  0.071839      4.000000
  0.769823  0.333333 -0.071839      4.000000
  0.481139  0.333333  0.071839      4.000000
  0.673595  0.333333 -0.071839      4.000000
  0.577367  0.333333  0.071839      4.000000
 -0.096228  0.333333  0.071839      4.000000
  0.096228  0.333333 -0.071839      4.000000
  0.000000  0.333333  0.071839      4.000000
  0.240570  0.416667  0.071839      4.000000
 -0.240570  0.416667 -0.071839      4.000000
  0.336798  0.416667  0.071839      4.000000
  0.817937  0.416667 -0.071839      4.000000
  0.433025  0.416667  0.071839      4.000000
  0.721709  0.416667 -0.071839      4.000000
  0.529253  0.416667  0.071839      4.000000
  0.625481  0.416667 -0.071839      4.000000
 -0.144342  0.416667  0.071839      4.000000
  0.144342  0.416667 -0.071839      4.000000
 -0.048114  0.416667  0.071839      4.000000
  0.048114  0.416667 -0.071839      4.000000
  0.288684  0.500000  0.071839      2.000000
  0.866051  0.500000 -0.071839      2.000000
  0.384911  0.500000  0.071839      4.000000
  0.769823  0.500000 -0.071839      4.000000
  0.481139  0.500000  0.071839      4.000000
  0.673595  0.500000 -0.071839      4.000000
  0.577367  0.500000  0.071839      4.000000
  0.000000  0.000000  0.143678      2.000000
  0.096228  0.000000  0.143678      4.000000
  0.192456  0.000000  0.143678      4.000000
  0.288684  0.000000  0.143678      4.000000
  0.384911  0.000000  0.143678      4.000000
  0.481139  0.000000  0.143678      4.000000
  0.577367  0.000000  0.143678      2.000000
  0.048114  0.083333  0.143678      4.000000
 -0.048114  0.083333 -0.143678      4.000000
  0.144342  0.083333  0.143678      4.000000
 -0.144342  0.083333 -0.143678      4.000000
  0.240570  0.083333  0.143678      4.000000
 -0.240570  0.083333 -0.143678      4.000000
  0.336798  0.083333  0.143678      4.000000
 -0.336798  0.083333 -0.143678      4.000000
  0.433025  0.083333  0.143678      4.000000
 -0.433025  0.083333 -0.143678      4.000000
  0.529253  0.083333  0.143678      4.000000
  0.625481  0.083333 -0.143678      4.000000
  0.096228  0.166667  0.143678      4.000000
 -0.096228  0.166667 -0.143678      4.000000
  0.192456  0.166667  0.143678      4.000000
 -0.192456  0.166667 -0.143678      4.000000
  0.288684  0.166667  0.143678      4.000000
 -0.288684  0.166667 -0.143678      4.000000
  0.384911  0.166667  0.143678      4.000000
 -0.384911  0.166667 -0.143678      4.000000
  0.481139  0.166667  0.143678      4.000000
  0.673595  0.166667 -0.143678      4.000000
  0.577367  0.166667  0.143678      4.000000
 -0.000000  0.166667  0.143678      4.000000
  0.144342  0.250000  0.143678      4.000000
 -0.144342  0.250000 -0.143678      4.000000
  0.240570  0.250000  0.143678      4.000000
 -0.240570  0.250000 -0.143678      4.000000
  0.336798  0.250000  0.143678      4.000000
 -0.336798  0.250000 -0.143678      4.000000
  0.433025  0.250000  0.143678      4.000000
  0.721709  0.250000 -0.143678      4.000000
  0.529253  0.250000  0.143678      4.000000
  0.625481  0.250000 -0.143678      4.000000
 -0.048114  0.250000  0.143678      4.000000
  0.048114  0.250000 -0.143678      4.000000
  0.192456  0.333333  0.143678      4.000000
 -0.192456  0.333333 -0.143678      4.000000
  0.288684  0.333333  0.143678      4.000000
 -0.288684  0.333333 -0.143678      4.000000
  0.384911  0.333333  0.143678      4.000000
  0.769823  0.333333 -0.143678      4.000000
  0.481139  0.333333  0.143678      4.000000
  0.673595  0.333333 -0.143678      4.000000
  0.577367  0.333333  0.143678      4.000000
 -0.096228  0.333333  0.143678      4.000000
  0.096228  0.333333 -0.143678      4.000000
  0.000000  0.333333  0.143678      4.000000
  0.240570  0.416667  0.143678      4.000000
 -0.240570  0.416667 -0.143678      4.000000
  0.336798  0.416667  0.143678      4.000000
  0.817937  0.416667 -0.143678      4.000000
  0.433025  0.416667  0.143678      4.000000
  0.721709  0.416667 -0.143678      4.000000
  0.529253  0.416667  0.143678      4.000000
  0.625481  0.416667 -0.143678      4.000000
 -0.144342  0.416667  0.143678      4.000000
  0.144342  0.416667 -0.143678      4.000000
 -0.048114  0.416667  0.143678      4.000000
  0.048114  0.416667 -0.143678      4.000000
  0.288684  0.500000  0.143678      2.000000
  0.866051  0.500000 -0.143678      2.000000
  0.384911  0.500000  0.143678      4.000000
  0.769823  0.500000 -0.143678      4.000000
  0.481139  0.500000  0.143678      4.000000
  0.673595  0.500000 -0.143678      4.000000
  0.577367  0.500000  0.143678      4.000000
  0.000000  0.000000  0.215517      2.000000
  0.096228  0.000000  0.215517      4.000000
  0.192456  0.000000  0.215517      4.000000
  0.288684  0.000000  0.215517      4.000000
  0.384911  0.000000  0.215517      4.000000
  0.481139  0.000000  0.215517      4.000000
  0.577367  0.000000  0.215517      2.000000
  0.048114  0.083333  0.215517      4.000000
 -0.048114  0.083333 -0.215517      4.000000
  0.144342  0.083333  0.215517      4.000000
 -0.144342  0.083333 -0.215517      4.000000
  0.240570  0.083333  0.215517      4.000000
 -0.240570  0.083333 -0.215517      4.000000
  0.336798  0.083333  0.215517      4.000000
 -0.336798  0.083333 -0.215517      4.000000
  0.433025  0.083333  0.215517      4.000000
 -0.433025  0.083333 -0.215517      4.000000
  0.529253  0.083333  0.215517      4.000000
  0.625481  0.083333 -0.215517      4.000000
  0.096228  0.166667  0.215517      4.000000
 -0.096228  0.166667 -0.215517      4.000000
  0.192456  0.166667  0.215517      4.000000
 -0.192456  0.166667 -0.215517      4.000000
  0.288684  0.166667  0.215517      4.000000
 -0.288684  0.166667 -0.215517      4.000000
  0.384911  0.166667  0.215517      4.000000
 -0.384911  0.166667 -0.215517      4.000000
  0.481139  0.166667  0.215517      4.000000
  0.673595  0.166667 -0.215517      4.000000
  0.577367  0.166667  0.215517      4.000000
 -0.000000  0.166667  0.215517      4.000000
  0.144342  0.250000  0.215517      4.000000
 -0.144342  0.250000 -0.215517      4.000000
  0.240570  0.250000  0.215517      4.000000
 -0.240570  0.250000 -0.215517      4.000000
  0.336798  0.250000  0.215517      4.000000
 -0.336798  0.250000 -0.215517      4.000000
  0.433025  0.250000  0.215517      4.000000
  0.721709  0.250000 -0.215517      4.000000
  0.529253  0.250000  0.215517      4.000000
  0.625481  0.250000 -0.215517      4.000000
 -0.048114  0.250000  0.215517      4.000000
  0.048114  0.250000 -0.215517      4.000000
  0.192456  0.333333  0.215517      4.000000
 -0.192456  0.333333 -0.215517      4.000000
  0.288684  0.333333  0.215517      4.000000
 -0.288684  0.333333 -0.215517      4.000000
  0.384911  0.333333  0.215517      4.000000
  0.769823  0.333333 -0.215517      4.000000
  0.481139  0.333333  0.215517      4.000000
  0.673595  0.333333 -0.215517      4.000000
  0.577367  0.333333  0.215517      4.000000
 -0.096228  0.333333  0.215517      4.000000
  0.096228  0.333333 -0.215517      4.000000
  0.000000  0.333333  0.215517      4.000000
  0.240570  0.416667  0.215517      4.000000
 -0.240570  0.416667 -0.215517      4.000000
  0.336798  0.416667  0.215517      4.000000
  0.817937  0.416667 -0.215517      4.000000
  0.433025  0.416667  0.215517      4.000000
  0.721709  0.416667 -0.215517      4.000000
  0.529253  0.416667  0.215517      4.000000
  0.625481  0.416667 -0.215517      4.000000
 -0.144342  0.416667  0.215517      4.000000
  0.144342  0.416667 -0.215517      4.000000
 -0.048114  0.416667  0.215517      4.000000
  0.048114  0.416667 -0.215517      4.000000
  0.288684  0.500000  0.215517      2.000000
  0.866051  0.500000 -0.215517      2.000000
  0.384911  0.500000  0.215517      4.000000
  0.769823  0.500000 -0.215517      4.000000
  0.481139  0.500000  0.215517      4.000000
  0.673595  0.500000 -0.215517      4.000000
  0.577367  0.500000  0.215517      4.000000
  0.000000  0.000000  0.287356      1.000000
  0.096228  0.000000  0.287356      2.000000
  0.192456  0.000000  0.287356      2.000000
  0.288684  0.000000  0.287356      2.000000
  0.384911  0.000000  0.287356      2.000000
  0.481139  0.000000  0.287356      2.000000
  0.577367  0.000000  0.287356      1.000000
  0.048114  0.083333  0.287356      2.000000
 -0.048114  0.083333  0.287356      2.000000
  0.144342  0.083333  0.287356      2.000000
 -0.144342  0.083333  0.287356      2.000000
  0.240570  0.083333  0.287356      2.000000
 -0.240570  0.083333  0.287356      2.000000
  0.336798  0.083333  0.287356      2.000000
 -0.336798  0.083333  0.287356      2.000000
  0.433025  0.083333  0.287356      2.000000
 -0.433025  0.083333  0.287356      2.000000
  0.529253  0.083333  0.287356      2.000000
  0.625481  0.083333  0.287356      2.000000
  0.096228  0.166667  0.287356      2.000000
 -0.096228  0.166667  0.287356      2.000000
  0.192456  0.166667  0.287356      2.000000
 -0.192456  0.166667  0.287356      2.000000
  0.288684  0.166667  0.287356      2.000000
 -0.288684  0.166667  0.287356      2.000000
  0.384911  0.166667  0.287356      2.000000
 -0.384911  0.166667  0.287356      2.000000
  0.481139  0.166667  0.287356      2.000000
  0.673595  0.166667  0.287356      2.000000
  0.577367  0.166667  0.287356      2.000000
 -0.000000  0.166667  0.287356      2.000000
  0.144342  0.250000  0.287356      2.000000
 -0.144342  0.250000  0.287356      2.000000
  0.240570  0.250000  0.287356      2.000000
 -0.240570  0.250000  0.287356      2.000000
  0.336798  0.250000  0.287356      2.000000
 -0.336798  0.250000  0.287356      2.000000
  0.433025  0.250000  0.287356      2.000000
  0.721709  0.250000  0.287356      2.000000
  0.529253  0.250000  0.287356      2.000000
  0.625481  0.250000  0.287356      2.000000
 -0.048114  0.250000  0.287356      2.000000
  0.048114  0.250000  0.287356      2.000000
  0.192456  0.333333  0.287356      2.000000
 -0.192456  0.333333  0.287356      2.000000
  0.288684  0.333333  0.287356      2.000000
 -0.288684  0.333333  0.287356      2.000000
  0.384911  0.333333  0.287356      2.000000
  0.769823  0.333333  0.287356      2.000000
  0.481139  0.333333  0.287356      2.000000
  0.673595  0.333333  0.287356      2.000000
  0.577367  0.333333  0.287356      2.000000
 -0.096228  0.333333  0.287356      2.000000
  0.096228  0.333333  0.287356      2.000000
  0.000000  0.333333  0.287356      2.000000
  0.240570  0.416667  0.287356      2.000000
 -0.240570  0.416667  0.287356      2.000000
  0.336798  0.416667  0.287356      2.000000
  0.817937  0.416667  0.287356      2.000000
  0.433025  0.416667  0.287356      2.000000
  0.721709  0.416667  0.287356      2.000000
  0.529253  0.416667  0.287356      2.000000
  0.625481  0.416667  0.287356      2.000000
 -0.144342  0.416667  0.287356      2.000000
  0.144342  0.416667  0.287356      2.000000
 -0.048114  0.416667  0.287356      2.000000
  0.048114  0.416667  0.287356      2.000000
  0.288684  0.500000  0.287356      1.000000
  0.866051  0.500000  0.287356      1.000000
  0.384911  0.500000  0.287356      2.000000
  0.769823  0.500000  0.287356      2.000000
  0.481139  0.500000  0.287356      2.000000
  0.673595  0.500000  0.287356      2.000000
  0.577367  0.500000  0.287356      2.000000
 


--------------------------------------------------------------------------------------------------------




 Dimension of arrays:
   k-points           NKPTS =    370   k-points in BZ     NKDIM =    370   number of bands    NBANDS=     16
   number of dos      NEDOS =    301   number of ions     NIONS =      2
   non local maximal  LDIM  =      6   non local SUM 2l+1 LMDIM =     18
   total plane-waves  NPLWV =   2880
   max r-space proj   IRMAX =      1   max aug-charges    IRDMAX=   3255
   dimension x,y,z NGX =    12 NGY =   12 NGZ =   20
   dimension x,y,z NGXF=    24 NGYF=   24 NGZF=   40
   support grid    NGXF=    24 NGYF=   24 NGZF=   40
   ions per type =               2
   NGX,Y,Z   is equivalent  to a cutoff of   7.12,  7.12,  6.82 a.u.
   NGXF,Y,Z  is equivalent  to a cutoff of  14.25, 14.25, 13.65 a.u.

 SYSTEM =  sc Cu                                   
 POSCAR =  hcp Cu                                  

 Startparameter for this run:
   NWRITE =      2    write-flag & timer
   PREC   = normal    normal or accurate (medium, high low for compatibility)
   ISTART =      0    job   : 0-new  1-cont  2-samecut
   ICHARG =      0    charge: 1-file 2-atom 10-const
   ISPIN  =      1    spin polarized calculation?
   LNONCOLLINEAR =      F non collinear calculations
   LSORBIT =      F    spin-orbit coupling
   INIWAV =      1    electr: 0-lowe 1-rand  2-diag
   LASPH  =      F    aspherical Exc in radial PAW
 Electronic Relaxation 1
   ENCUT  =  292.0 eV  21.46 Ry    4.63 a.u.   3.90  3.90  6.79*2*pi/ulx,y,z
   ENINI  =  292.0     initial cutoff
   ENAUG  =  516.5 eV  augmentation charge cutoff
   NELM   =     60;   NELMIN=  2; NELMDL= -5     # of ELM steps 
   EDIFF  = 0.1E-03   stopping-criterion for ELM
   LREAL  =      F    real-space projection
   NLSPLINE    = F    spline interpolate recip. space projectors
   LCOMPAT=      F    compatible to vasp.4.4
   GGA_COMPAT  = T    GGA compatible to vasp.4.4-vasp.4.6
   LMAXPAW     = -100 max onsite density
   LMAXMIX     =    2 max onsite mixed and CHGCAR
   VOSKOWN=      0    Vosko Wilk Nusair interpolation
   ROPT   =    0.00000
 Ionic relaxation
   EDIFFG = 0.1E-02   stopping-criterion for IOM
   NSW    =      0    number of steps for IOM
   NBLOCK =      1;   KBLOCK =      1    inner block; outer block 
   IBRION =     -1    ionic relax: 0-MD 1-quasi-New 2-CG
   NFREE  =      0    steps in history (QN), initial steepest desc. (CG)
   ISIF   =      2    stress and relaxation
   IWAVPR =     10    prediction:  0-non 1-charg 2-wave 3-comb
   ISYM   =      2    0-nonsym 1-usesym 2-fastsym
   LCORR  =      T    Harris-Foulkes like correction to forces

   POTIM  = 0.5000    time-step for ionic-motion
   TEIN   =    0.0    initial temperature
   TEBEG  =    0.0;   TEEND  =   0.0 temperature during run
   SMASS  =  -3.00    Nose mass-parameter (am)
   estimated Nose-frequenzy (Omega)   =  0.10E-29 period in steps = 0.13E+47 mass=  -0.179E-27a.u.
   SCALEE = 1.0000    scale energy and forces
   NPACO  =    256;   APACO  = 10.0  distance and # of slots for P.C.
   PSTRESS=    0.0 pullay stress

  Mass of Ions in am
   POMASS =  63.55
  Ionic Valenz
   ZVAL   =  11.00
  Atomic Wigner-Seitz radii
   RWIGS  =  -1.00
  virtual crystal weights 
   VCA    =   1.00
   NELECT =      22.0000    total number of electrons
   NUPDOWN=      -1.0000    fix difference up-down

 DOS related values:
   EMIN   =  10.00;   EMAX   =-10.00  energy-range for DOS
   EFERMI =   0.00
   ISMEAR =     0;   SIGMA  =   0.05  broadening in eV -4-tet -1-fermi 0-gaus

 Electronic relaxation 2 (details)
   IALGO  =     38    algorithm
   LDIAG  =      T    sub-space diagonalisation (order eigenvalues)
   LSUBROT=      F    optimize rotation matrix (better conditioning)
   TURBO    =      0    0=normal 1=particle mesh
   IRESTART =      0    0=no restart 2=restart with 2 vectors
   NREBOOT  =      0    no. of reboots
   NMIN     =      0    reboot dimension
   EREF     =   0.00    reference energy to select bands
   IMIX   =      4    mixing-type and parameters
     AMIX     =   0.40;   BMIX     =  1.00
     AMIX_MAG =   1.60;   BMIX_MAG =  1.00
     AMIN     =   0.10
     WC   =   100.;   INIMIX=   1;  MIXPRE=   1;  MAXMIX= -45

 Intra band minimization:
   WEIMIN = 0.0000     energy-eigenvalue tresh-hold
   EBREAK =  0.16E-05  absolut break condition
   DEPER  =   0.30     relativ break condition  

   TIME   =   0.40     timestep for ELM

  volume/ion in A,a.u.               =      16.54       111.61
  Fermi-wavevector in a.u.,A,eV,Ry     =   1.429010  2.700438 27.784049  2.042070
  Thomas-Fermi vector in A             =   2.549010
 
 Write flags
   LWAVE        =      T    write WAVECAR
   LDOWNSAMPLE  =      F    k-point downsampling of WAVECAR
   LCHARG       =      T    write CHGCAR
   LVTOT        =      F    write LOCPOT, total local potential
   LVHAR        =      F    write LOCPOT, Hartree potential only
   LELF         =      F    write electronic localiz. function (ELF)
   LORBIT       =      0    0 simple, 1 ext, 2 COOP (PROOUT), +10 PAW based schemes


 Dipole corrections
   LMONO  =      F    monopole corrections only (constant potential shift)
   LDIPOL =      F    correct potential (dipole corrections)
   IDIPOL =      0    1-x, 2-y, 3-z, 4-all directions 
   EPSILON=  1.0000000 bulk dielectric constant

 Exchange correlation treatment:
   GGA     =    --    GGA type
   LEXCH   =     7    internal setting for exchange type
   LIBXC   =     F    Libxc                    
   VOSKOWN =     0    Vosko Wilk Nusair interpolation
   LHFCALC =     F    Hartree Fock is set to
   LHFONE  =     F    Hartree Fock one center treatment
   AEXX    =    0.0000 exact exchange contribution

 Linear response parameters
   LEPSILON=     F    determine dielectric tensor
   LRPA    =     F    only Hartree local field effects (RPA)
   LNABLA  =     F    use nabla operator in PAW spheres
   LVEL    =     F    velocity operator in full k-point grid
   CSHIFT  =0.1000    complex shift for real part using Kramers Kronig
   OMEGAMAX=  -1.0    maximum frequency
   DEG_THRESHOLD= 0.2000000E-02 threshold for treating states as degnerate
   RTIME   =   -0.100 relaxation time in fs
  (WPLASMAI=    0.000 imaginary part of plasma frequency in eV, 0.658/RTIME)
   DFIELD  = 0.0000000 0.0000000 0.0000000 field for delta impulse in time
 
  Optional k-point grid parameters
   LKPOINTS_OPT  =     F    use optional k-point grid
   KPOINTS_OPT_MODE=     1    mode for optional k-point grid
 
 Orbital magnetization related:
   ORBITALMAG=     F  switch on orbital magnetization
   LCHIMAG   =     F  perturbation theory with respect to B field
   DQ        =  0.001000  dq finite difference perturbation B field
   LLRAUG    =     F  two centre corrections for induced B field



--------------------------------------------------------------------------------------------------------


 Static calculation
 charge density and potential will be updated during run
 non-spin polarized calculation
 Variant of blocked Davidson
 Davidson routine will perform the subspace rotation
 perform sub-space diagonalisation
    after iterative eigenvector-optimisation
 modified Broyden-mixing scheme, WC =      100.0
 initial mixing is a Kerker type mixing with AMIX =  0.4000 and BMIX =      1.0000
 Hartree-type preconditioning will be used
 using additional bands            5
 reciprocal scheme for non local part
 use partial core corrections
 calculate Harris-corrections to forces 
   (improved forces if not selfconsistent)
 use gradient corrections 
 use of overlap-Matrix (Vanderbilt PP)
 Gauss-broadening in eV      SIGMA  =   0.05


--------------------------------------------------------------------------------------------------------


  energy-cutoff  :      292.00
  volume of cell :       33.08
      direct lattice vectors                 reciprocal lattice vectors
     2.424800000 -1.400000000  0.000000000     0.412405147  0.000000000  0.000000000
     0.000000000  2.800000000  0.000000000     0.206202573  0.357142857  0.000000000
     0.000000000  0.000000000  4.872000000     0.000000000  0.000000000  0.205254516

  length of vectors
     2.799938399  2.800000000  4.872000000     0.412405147  0.412396074  0.205254516


 
 k-points in units of 2pi/SCALE and weight: K-Points                                
   0.00000000  0.00000000  0.00000000       0.001
   0.09622787  0.00000000  0.00000000       0.002
   0.19245574  0.00000000  0.00000000       0.002
   0.28868360  0.00000000  0.00000000       0.002
   0.38491147  0.00000000  0.00000000       0.002
   0.48113934  0.00000000  0.00000000       0.002
   0.57736721  0.00000000  0.00000000       0.001
   0.04811393  0.08333333  0.00000000       0.002
  -0.04811393  0.08333333  0.00000000       0.002
   0.14434180  0.08333333  0.00000000       0.002
  -0.14434180  0.08333333  0.00000000       0.002
   0.24056967  0.08333333  0.00000000       0.002
  -0.24056967  0.08333333  0.00000000       0.002
   0.33679754  0.08333333  0.00000000       0.002
  -0.33679754  0.08333333  0.00000000       0.002
   0.43302540  0.08333333  0.00000000       0.002
  -0.43302540  0.08333333  0.00000000       0.002
   0.52925327  0.08333333  0.00000000       0.002
   0.62548114  0.08333333  0.00000000       0.002
   0.09622787  0.16666667  0.00000000       0.002
  -0.09622787  0.16666667  0.00000000       0.002
   0.19245574  0.16666667  0.00000000       0.002
  -0.19245574  0.16666667  0.00000000       0.002
   0.28868360  0.16666667  0.00000000       0.002
  -0.28868360  0.16666667  0.00000000       0.002
   0.38491147  0.16666667  0.00000000       0.002
  -0.38491147  0.16666667  0.00000000       0.002
   0.48113934  0.16666667  0.00000000       0.002
   0.67359507  0.16666667  0.00000000       0.002
   0.57736721  0.16666667  0.00000000       0.002
  -0.00000000  0.16666667  0.00000000       0.002
   0.14434180  0.25000000  0.00000000       0.002
  -0.14434180  0.25000000  0.00000000       0.002
   0.24056967  0.25000000  0.00000000       0.002
  -0.24056967  0.25000000  0.00000000       0.002
   0.33679754  0.25000000  0.00000000       0.002
  -0.33679754  0.25000000  0.00000000       0.002
   0.43302540  0.25000000  0.00000000       0.002
   0.72170901  0.25000000  0.00000000       0.002
   0.52925327  0.25000000  0.00000000       0.002
   0.62548114  0.25000000  0.00000000       0.002
  -0.04811393  0.25000000  0.00000000       0.002
   0.04811393  0.25000000  0.00000000       0.002
   0.19245574  0.33333333  0.00000000       0.002
  -0.19245574  0.33333333  0.00000000       0.002
   0.28868360  0.33333333  0.00000000       0.002
  -0.28868360  0.33333333  0.00000000       0.002
   0.38491147  0.33333333  0.00000000       0.002
   0.76982294  0.33333333  0.00000000       0.002
   0.48113934  0.33333333  0.00000000       0.002
   0.67359507  0.33333333  0.00000000       0.002
   0.57736721  0.33333333  0.00000000       0.002
  -0.09622787  0.33333333  0.00000000       0.002
   0.09622787  0.33333333  0.00000000       0.002
   0.00000000  0.33333333  0.00000000       0.002
   0.24056967  0.41666667  0.00000000       0.002
  -0.24056967  0.41666667  0.00000000       0.002
   0.33679754  0.41666667  0.00000000       0.002
   0.81793687  0.41666667  0.00000000       0.002
   0.43302540  0.41666667  0.00000000       0.002
   0.72170901  0.41666667  0.00000000       0.002
   0.52925327  0.41666667  0.00000000       0.002
   0.62548114  0.41666667  0.00000000       0.002
  -0.14434180  0.41666667  0.00000000       0.002
   0.14434180  0.41666667  0.00000000       0.002
  -0.04811393  0.41666667  0.00000000       0.002
   0.04811393  0.41666667  0.00000000       0.002
   0.28868360  0.50000000  0.00000000       0.001
   0.86605081  0.50000000  0.00000000       0.001
   0.38491147  0.50000000  0.00000000       0.002
   0.76982294  0.50000000  0.00000000       0.002
   0.48113934  0.50000000  0.00000000       0.002
   0.67359507  0.50000000  0.00000000       0.002
   0.57736721  0.50000000  0.00000000       0.002
   0.00000000  0.00000000  0.07183908       0.002
   0.09622787  0.00000000  0.07183908       0.003
   0.19245574  0.00000000  0.07183908       0.003
   0.28868360  0.00000000  0.07183908       0.003
   0.38491147  0.00000000  0.07183908       0.003
   0.48113934  0.00000000  0.07183908       0.003
   0.57736721  0.00000000  0.07183908       0.002
   0.04811393  0.08333333  0.07183908       0.003
  -0.04811393  0.08333333 -0.07183908       0.003
   0.14434180  0.08333333  0.07183908       0.003
  -0.14434180  0.08333333 -0.07183908       0.003
   0.24056967  0.08333333  0.07183908       0.003
  -0.24056967  0.08333333 -0.07183908       0.003
   0.33679754  0.08333333  0.07183908       0.003
  -0.33679754  0.08333333 -0.07183908       0.003
   0.43302540  0.08333333  0.07183908       0.003
  -0.43302540  0.08333333 -0.07183908       0.003
   0.52925327  0.08333333  0.07183908       0.003
   0.62548114  0.08333333 -0.07183908       0.003
   0.09622787  0.16666667  0.07183908       0.003
  -0.09622787  0.16666667 -0.07183908       0.003
   0.19245574  0.16666667  0.07183908       0.003
  -0.19245574  0.16666667 -0.07183908       0.003
   0.28868360  0.16666667  0.07183908       0.003
  -0.28868360  0.16666667 -0.07183908       0.003
   0.38491147  0.16666667  0.07183908       0.003
  -0.38491147  0.16666667 -0.07183908       0.003
   0.48113934  0.16666667  0.07183908       0.003
   0.67359507  0.16666667 -0.07183908       0.003
   0.57736721  0.16666667  0.07183908       0.003
  -0.00000000  0.16666667  0.07183908       0.003
   0.14434180  0.25000000  0.07183908       0.003
  -0.14434180  0.25000000 -0.07183908       0.003
   0.24056967  0.25000000  0.07183908       0.003
  -0.24056967  0.25000000 -0.07183908       0.003
   0.33679754  0.25000000  0.07183908       0.003
  -0.33679754  0.25000000 -0.07183908       0.003
   0.43302540  0.25000000  0.07183908       0.003
   0.72170901  0.25000000 -0.07183908       0.003
   0.52925327  0.25000000  0.07183908       0.003
   0.62548114  0.25000000 -0.07183908       0.003
  -0.04811393  0.25000000  0.07183908       0.003
   0.04811393  0.25000000 -0.07183908       0.003
   0.19245574  0.33333333  0.07183908       0.003
  -0.19245574  0.33333333 -0.07183908       0.003
   0.28868360  0.33333333  0.07183908       0.003
  -0.28868360  0.33333333 -0.07183908       0.003
   0.38491147  0.33333333  0.07183908       0.003
   0.76982294  0.33333333 -0.07183908       0.003
   0.48113934  0.33333333  0.07183908       0.003
   0.67359507  0.33333333 -0.07183908       0.003
   0.57736721  0.33333333  0.07183908       0.003
  -0.09622787  0.33333333  0.07183908       0.003
   0.09622787  0.33333333 -0.07183908       0.003
   0.00000000  0.33333333  0.07183908       0.003
   0.24056967  0.41666667  0.07183908       0.003
  -0.24056967  0.41666667 -0.07183908       0.003
   0.33679754  0.41666667  0.07183908       0.003
   0.81793687  0.41666667 -0.07183908       0.003
   0.43302540  0.41666667  0.07183908       0.003
   0.72170901  0.41666667 -0.07183908       0.003
   0.52925327  0.41666667  0.07183908       0.003
   0.62548114  0.41666667 -0.07183908       0.003
  -0.14434180  0.41666667  0.07183908       0.003
   0.14434180  0.41666667 -0.07183908       0.003
  -0.04811393  0.41666667  0.07183908       0.003
   0.04811393  0.41666667 -0.07183908       0.003
   0.28868360  0.50000000  0.07183908       0.002
   0.86605081  0.50000000 -0.07183908       0.002
   0.38491147  0.50000000  0.07183908       0.003
   0.76982294  0.50000000 -0.07183908       0.003
   0.48113934  0.50000000  0.07183908       0.003
   0.67359507  0.50000000 -0.07183908       0.003
   0.57736721  0.50000000  0.07183908       0.003
   0.00000000  0.00000000  0.14367816       0.002
   0.09622787  0.00000000  0.14367816       0.003
   0.19245574  0.00000000  0.14367816       0.003
   0.28868360  0.00000000  0.14367816       0.003
   0.38491147  0.00000000  0.14367816       0.003
   0.48113934  0.00000000  0.14367816       0.003
   0.57736721  0.00000000  0.14367816       0.002
   0.04811393  0.08333333  0.14367816       0.003
  -0.04811393  0.08333333 -0.14367816       0.003
   0.14434180  0.08333333  0.14367816       0.003
  -0.14434180  0.08333333 -0.14367816       0.003
   0.24056967  0.08333333  0.14367816       0.003
  -0.24056967  0.08333333 -0.14367816       0.003
   0.33679754  0.08333333  0.14367816       0.003
  -0.33679754  0.08333333 -0.14367816       0.003
   0.43302540  0.08333333  0.14367816       0.003
  -0.43302540  0.08333333 -0.14367816       0.003
   0.52925327  0.08333333  0.14367816       0.003
   0.62548114  0.08333333 -0.14367816       0.003
   0.09622787  0.16666667  0.14367816       0.003
  -0.09622787  0.16666667 -0.14367816       0.003
   0.19245574  0.16666667  0.14367816       0.003
  -0.19245574  0.16666667 -0.14367816       0.003
   0.28868360  0.16666667  0.14367816       0.003
  -0.28868360  0.16666667 -0.14367816       0.003
   0.38491147  0.16666667  0.14367816       0.003
  -0.38491147  0.16666667 -0.14367816       0.003
   0.48113934  0.16666667  0.14367816       0.003
   0.67359507  0.16666667 -0.14367816       0.003
   0.57736721  0.16666667  0.14367816       0.003
  -0.00000000  0.16666667  0.14367816       0.003
   0.14434180  0.25000000  0.14367816       0.003
  -0.14434180  0.25000000 -0.14367816       0.003
   0.24056967  0.25000000  0.14367816       0.003
  -0.24056967  0.25000000 -0.14367816       0.003
   0.33679754  0.25000000  0.14367816       0.003
  -0.33679754  0.25000000 -0.14367816       0.003
   0.43302540  0.25000000  0.14367816       0.003
   0.72170901  0.25000000 -0.14367816       0.003
   0.52925327  0.25000000  0.14367816       0.003
   0.62548114  0.25000000 -0.14367816       0.003
  -0.04811393  0.25000000  0.14367816       0.003
   0.04811393  0.25000000 -0.14367816       0.003
   0.19245574  0.33333333  0.14367816       0.003
  -0.19245574  0.33333333 -0.14367816       0.003
   0.28868360  0.33333333  0.14367816       0.003
  -0.28868360  0.33333333 -0.14367816       0.003
   0.38491147  0.33333333  0.14367816       0.003
   0.76982294  0.33333333 -0.14367816       0.003
   0.48113934  0.33333333  0.14367816       0.003
   0.67359507  0.33333333 -0.14367816       0.003
   0.57736721  0.33333333  0.14367816       0.003
  -0.09622787  0.33333333  0.14367816       0.003
   0.09622787  0.33333333 -0.14367816       0.003
   0.00000000  0.33333333  0.14367816       0.003
   0.24056967  0.41666667  0.14367816       0.003
  -0.24056967  0.41666667 -0.14367816       0.003
   0.33679754  0.41666667  0.14367816       0.003
   0.81793687  0.41666667 -0.14367816       0.003
   0.43302540  0.41666667  0.14367816       0.003
   0.72170901  0.41666667 -0.14367816       0.003
   0.52925327  0.41666667  0.14367816       0.003
   0.62548114  0.41666667 -0.14367816       0.003
  -0.14434180  0.41666667  0.14367816       0.003
   0.14434180  0.41666667 -0.14367816       0.003
  -0.04811393  0.41666667  0.14367816       0.003
   0.04811393  0.41666667 -0.14367816       0.003
   0.28868360  0.50000000  0.14367816       0.002
   0.86605081  0.50000000 -0.14367816       0.002
   0.38491147  0.50000000  0.14367816       0.003
   0.76982294  0.50000000 -0.14367816       0.003
   0.48113934  0.50000000  0.14367816       0.003
   0.67359507  0.50000000 -0.14367816       0.003
   0.57736721  0.50000000  0.14367816       0.003
   0.00000000  0.00000000  0.21551724       0.002
   0.09622787  0.00000000  0.21551724       0.003
   0.19245574  0.00000000  0.21551724       0.003
   0.28868360  0.00000000  0.21551724       0.003
   0.38491147  0.00000000  0.21551724       0.003
   0.48113934  0.00000000  0.21551724       0.003
   0.57736721  0.00000000  0.21551724       0.002
   0.04811393  0.08333333  0.21551724       0.003
  -0.04811393  0.08333333 -0.21551724       0.003
   0.14434180  0.08333333  0.21551724       0.003
  -0.14434180  0.08333333 -0.21551724       0.003
   0.24056967  0.08333333  0.21551724       0.003
  -0.24056967  0.08333333 -0.21551724       0.003
   0.33679754  0.08333333  0.21551724       0.003
  -0.33679754  0.08333333 -0.21551724       0.003
   0.43302540  0.08333333  0.21551724       0.003
  -0.43302540  0.08333333 -0.21551724       0.003
   0.52925327  0.08333333  0.21551724       0.003
   0.62548114  0.08333333 -0.21551724       0.003
   0.09622787  0.16666667  0.21551724       0.003
  -0.09622787  0.16666667 -0.21551724       0.003
   0.19245574  0.16666667  0.21551724       0.003
  -0.19245574  0.16666667 -0.21551724       0.003
   0.28868360  0.16666667  0.21551724       0.003
  -0.28868360  0.16666667 -0.21551724       0.003
   0.38491147  0.16666667  0.21551724       0.003
  -0.38491147  0.16666667 -0.21551724       0.003
   0.48113934  0.16666667  0.21551724       0.003
   0.67359507  0.16666667 -0.21551724       0.003
   0.57736721  0.16666667  0.21551724       0.003
  -0.00000000  0.16666667  0.21551724       0.003
   0.14434180  0.25000000  0.21551724       0.003
  -0.14434180  0.25000000 -0.21551724       0.003
   0.24056967  0.25000000  0.21551724       0.003
  -0.24056967  0.25000000 -0.21551724       0.003
   0.33679754  0.25000000  0.21551724       0.003
  -0.33679754  0.25000000 -0.21551724       0.003
   0.43302540  0.25000000  0.21551724       0.003
   0.72170901  0.25000000 -0.21551724       0.003
   0.52925327  0.25000000  0.21551724       0.003
   0.62548114  0.25000000 -0.21551724       0.003
  -0.04811393  0.25000000  0.21551724       0.003
   0.04811393  0.25000000 -0.21551724       0.003
   0.19245574  0.33333333  0.21551724       0.003
  -0.19245574  0.33333333 -0.21551724       0.003
   0.28868360  0.33333333  0.21551724       0.003
  -0.28868360  0.33333333 -0.21551724       0.003
   0.38491147  0.33333333  0.21551724       0.003
   0.76982294  0.33333333 -0.21551724       0.003
   0.48113934  0.33333333  0.21551724       0.003
   0.67359507  0.33333333 -0.21551724       0.003
   0.57736721  0.33333333  0.21551724       0.003
  -0.09622787  0.33333333  0.21551724       0.003
   0.09622787  0.33333333 -0.21551724       0.003
   0.00000000  0.33333333  0.21551724       0.003
   0.24056967  0.41666667  0.21551724       0.003
  -0.24056967  0.41666667 -0.21551724       0.003
   0.33679754  0.41666667  0.21551724       0.003
   0.81793687  0.41666667 -0.21551724       0.003
   0.43302540  0.41666667  0.21551724       0.003
   0.72170901  0.41666667 -0.21551724       0.003
   0.52925327  0.41666667  0.21551724       0.003
   0.62548114  0.41666667 -0.21551724       0.003
  -0.14434180  0.41666667  0.21551724       0.003
   0.14434180  0.41666667 -0.21551724       0.003
  -0.04811393  0.41666667  0.21551724       0.003
   0.04811393  0.41666667 -0.21551724       0.003
   0.28868360  0.50000000  0.21551724       0.002
   0.86605081  0.50000000 -0.21551724       0.002
   0.38491147  0.50000000  0.21551724       0.003
   0.76982294  0.50000000 -0.21551724       0.003
   0.48113934  0.50000000  0.21551724       0.003
   0.67359507  0.50000000 -0.21551724       0.003
   0.57736721  0.50000000  0.21551724       0.003
   0.00000000  0.00000000  0.28735632       0.001
   0.09622787  0.00000000  0.28735632       0.002
   0.19245574  0.00000000  0.28735632       0.002
   0.28868360  0.00000000  0.28735632       0.002
   0.38491147  0.00000000  0.28735632       0.002
   0.48113934  0.00000000  0.28735632       0.002
   0.57736721  0.00000000  0.28735632       0.001
   0.04811393  0.08333333  0.28735632       0.002
  -0.04811393  0.08333333  0.28735632       0.002
   0.14434180  0.08333333  0.28735632       0.002
  -0.14434180  0.08333333  0.28735632       0.002
   0.24056967  0.08333333  0.28735632       0.002
  -0.24056967  0.08333333  0.28735632       0.002
   0.33679754  0.08333333  0.28735632       0.002
  -0.33679754  0.08333333  0.28735632       0.002
   0.43302540  0.08333333  0.28735632       0.002
  -0.43302540  0.08333333  0.28735632       0.002
   0.52925327  0.08333333  0.28735632       0.002
   0.62548114  0.08333333  0.28735632       0.002
   0.09622787  0.16666667  0.28735632       0.002
  -0.09622787  0.16666667  0.28735632       0.002
   0.19245574  0.16666667  0.28735632       0.002
  -0.19245574  0.16666667  0.28735632       0.002
   0.28868360  0.16666667  0.28735632       0.002
  -0.28868360  0.16666667  0.28735632       0.002
   0.38491147  0.16666667  0.28735632       0.002
  -0.38491147  0.16666667  0.28735632       0.002
   0.48113934  0.16666667  0.28735632       0.002
   0.67359507  0.16666667  0.28735632       0.002
   0.57736721  0.16666667  0.28735632       0.002
  -0.00000000  0.16666667  0.28735632       0.002
   0.14434180  0.25000000  0.28735632       0.002
  -0.14434180  0.25000000  0.28735632       0.002
   0.24056967  0.25000000  0.28735632       0.002
  -0.24056967  0.25000000  0.28735632       0.002
   0.33679754  0.25000000  0.28735632       0.002
  -0.33679754  0.25000000  0.28735632       0.002
   0.43302540  0.25000000  0.28735632       0.002
   0.72170901  0.25000000  0.28735632       0.002
   0.52925327  0.25000000  0.28735632       0.002
   0.62548114  0.25000000  0.28735632       0.002
  -0.04811393  0.25000000  0.28735632       0.002
   0.04811393  0.25000000  0.28735632       0.002
   0.19245574  0.33333333  0.28735632       0.002
  -0.19245574  0.33333333  0.28735632       0.002
   0.28868360  0.33333333  0.28735632       0.002
  -0.28868360  0.33333333  0.28735632       0.002
   0.38491147  0.33333333  0.28735632       0.002
   0.76982294  0.33333333  0.28735632       0.002
   0.48113934  0.33333333  0.28735632       0.002
   0.67359507  0.33333333  0.28735632       0.002
   0.57736721  0.33333333  0.28735632       0.002
  -0.09622787  0.33333333  0.28735632       0.002
   0.09622787  0.33333333  0.28735632       0.002
   0.00000000  0.33333333  0.28735632       0.002
   0.24056967  0.41666667  0.28735632       0.002
  -0.24056967  0.41666667  0.28735632       0.002
   0.33679754  0.41666667  0.28735632       0.002
   0.81793687  0.41666667  0.28735632       0.002
   0.43302540  0.41666667  0.28735632       0.002
   0.72170901  0.41666667  0.28735632       0.002
   0.52925327  0.41666667  0.28735632       0.002
   0.62548114  0.41666667  0.28735632       0.002
  -0.14434180  0.41666667  0.28735632       0.002
   0.14434180  0.41666667  0.28735632       0.002
  -0.04811393  0.41666667  0.28735632       0.002
   0.04811393  0.41666667  0.28735632       0.002
   0.28868360  0.50000000  0.28735632       0.001
   0.86605081  0.50000000  0.28735632       0.001
   0.38491147  0.50000000  0.28735632       0.002
   0.76982294  0.50000000  0.28735632       0.002
   0.48113934  0.50000000  0.28735632       0.002
   0.67359507  0.50000000  0.28735632       0.002
   0.57736721  0.50000000  0.28735632       0.002
 
 k-points in reciprocal lattice and weights: K-Points                                
   0.00000000  0.00000000  0.00000000       0.001
   0.08333333  0.00000000  0.00000000       0.002
   0.16666667  0.00000000  0.00000000       0.002
   0.25000000  0.00000000  0.00000000       0.002
   0.33333333  0.00000000  0.00000000       0.002
   0.41666667  0.00000000  0.00000000       0.002
   0.50000000  0.00000000  0.00000000       0.001
  -0.00000000  0.08333333  0.00000000       0.002
  -0.08333333  0.08333333  0.00000000       0.002
   0.08333333  0.08333333  0.00000000       0.002
  -0.16666667  0.08333333  0.00000000       0.002
   0.16666667  0.08333333  0.00000000       0.002
  -0.25000000  0.08333333  0.00000000       0.002
   0.25000000  0.08333333  0.00000000       0.002
  -0.33333333  0.08333333  0.00000000       0.002
   0.33333333  0.08333333  0.00000000       0.002
  -0.41666667  0.08333333  0.00000000       0.002
   0.41666667  0.08333333  0.00000000       0.002
   0.50000000  0.08333333  0.00000000       0.002
  -0.00000000  0.16666667  0.00000000       0.002
  -0.16666667  0.16666667  0.00000000       0.002
   0.08333333  0.16666667  0.00000000       0.002
  -0.25000000  0.16666667  0.00000000       0.002
   0.16666667  0.16666667  0.00000000       0.002
  -0.33333333  0.16666667  0.00000000       0.002
   0.25000000  0.16666667  0.00000000       0.002
  -0.41666667  0.16666667  0.00000000       0.002
   0.33333333  0.16666667  0.00000000       0.002
   0.50000000  0.16666667  0.00000000       0.002
   0.41666667  0.16666667  0.00000000       0.002
  -0.08333333  0.16666667  0.00000000       0.002
  -0.00000000  0.25000000  0.00000000       0.002
  -0.25000000  0.25000000  0.00000000       0.002
   0.08333333  0.25000000  0.00000000       0.002
  -0.33333333  0.25000000  0.00000000       0.002
   0.16666667  0.25000000  0.00000000       0.002
  -0.41666667  0.25000000  0.00000000       0.002
   0.25000000  0.25000000  0.00000000       0.002
   0.50000000  0.25000000  0.00000000       0.002
   0.33333333  0.25000000  0.00000000       0.002
   0.41666667  0.25000000  0.00000000       0.002
  -0.16666667  0.25000000  0.00000000       0.002
  -0.08333333  0.25000000  0.00000000       0.002
  -0.00000000  0.33333333  0.00000000       0.002
  -0.33333333  0.33333333  0.00000000       0.002
   0.08333333  0.33333333  0.00000000       0.002
  -0.41666667  0.33333333  0.00000000       0.002
   0.16666667  0.33333333  0.00000000       0.002
   0.50000000  0.33333333  0.00000000       0.002
   0.25000000  0.33333333  0.00000000       0.002
   0.41666667  0.33333333  0.00000000       0.002
   0.33333333  0.33333333  0.00000000       0.002
  -0.25000000  0.33333333  0.00000000       0.002
  -0.08333333  0.33333333  0.00000000       0.002
  -0.16666667  0.33333333  0.00000000       0.002
  -0.00000000  0.41666667  0.00000000       0.002
  -0.41666667  0.41666667  0.00000000       0.002
   0.08333333  0.41666667  0.00000000       0.002
   0.50000000  0.41666667  0.00000000       0.002
   0.16666667  0.41666667  0.00000000       0.002
   0.41666667  0.41666667  0.00000000       0.002
   0.25000000  0.41666667  0.00000000       0.002
   0.33333333  0.41666667  0.00000000       0.002
  -0.33333333  0.41666667  0.00000000       0.002
  -0.08333333  0.41666667  0.00000000       0.002
  -0.25000000  0.41666667  0.00000000       0.002
  -0.16666667  0.41666667  0.00000000       0.002
  -0.00000000  0.50000000  0.00000000       0.001
   0.50000000  0.50000000  0.00000000       0.001
   0.08333333  0.50000000  0.00000000       0.002
   0.41666667  0.50000000  0.00000000       0.002
   0.16666667  0.50000000  0.00000000       0.002
   0.33333333  0.50000000  0.00000000       0.002
   0.25000000  0.50000000  0.00000000       0.002
   0.00000000  0.00000000  0.12500000       0.002
   0.08333333  0.00000000  0.12500000       0.003
   0.16666667  0.00000000  0.12500000       0.003
   0.25000000  0.00000000  0.12500000       0.003
   0.33333333  0.00000000  0.12500000       0.003
   0.41666667  0.00000000  0.12500000       0.003
   0.50000000  0.00000000  0.12500000       0.002
  -0.00000000  0.08333333  0.12500000       0.003
  -0.08333333  0.08333333 -0.12500000       0.003
   0.08333333  0.08333333  0.12500000       0.003
  -0.16666667  0.08333333 -0.12500000       0.003
   0.16666667  0.08333333  0.12500000       0.003
  -0.25000000  0.08333333 -0.12500000       0.003
   0.25000000  0.08333333  0.12500000       0.003
  -0.33333333  0.08333333 -0.12500000       0.003
   0.33333333  0.08333333  0.12500000       0.003
  -0.41666667  0.08333333 -0.12500000       0.003
   0.41666667  0.08333333  0.12500000       0.003
   0.50000000  0.08333333 -0.12500000       0.003
  -0.00000000  0.16666667  0.12500000       0.003
  -0.16666667  0.16666667 -0.12500000       0.003
   0.08333333  0.16666667  0.12500000       0.003
  -0.25000000  0.16666667 -0.12500000       0.003
   0.16666667  0.16666667  0.12500000       0.003
  -0.33333333  0.16666667 -0.12500000       0.003
   0.25000000  0.16666667  0.12500000       0.003
  -0.41666667  0.16666667 -0.12500000       0.003
   0.33333333  0.16666667  0.12500000       0.003
   0.50000000  0.16666667 -0.12500000       0.003
   0.41666667  0.16666667  0.12500000       0.003
  -0.08333333  0.16666667  0.12500000       0.003
  -0.00000000  0.25000000  0.12500000       0.003
  -0.25000000  0.25000000 -0.12500000       0.003
   0.08333333  0.25000000  0.12500000       0.003
  -0.33333333  0.25000000 -0.12500000       0.003
   0.16666667  0.25000000  0.12500000       0.003
  -0.41666667  0.25000000 -0.12500000       0.003
   0.25000000  0.25000000  0.12500000       0.003
   0.50000000  0.25000000 -0.12500000       0.003
   0.33333333  0.25000000  0.12500000       0.003
   0.41666667  0.25000000 -0.12500000       0.003
  -0.16666667  0.25000000  0.12500000       0.003
  -0.08333333  0.25000000 -0.12500000       0.003
  -0.00000000  0.33333333  0.12500000       0.003
  -0.33333333  0.33333333 -0.12500000       0.003
   0.08333333  0.33333333  0.12500000       0.003
  -0.41666667  0.33333333 -0.12500000       0.003
   0.16666667  0.33333333  0.12500000       0.003
   0.50000000  0.33333333 -0.12500000       0.003
   0.25000000  0.33333333  0.12500000       0.003
   0.41666667  0.33333333 -0.12500000       0.003
   0.33333333  0.33333333  0.12500000       0.003
  -0.25000000  0.33333333  0.12500000       0.003
  -0.08333333  0.33333333 -0.12500000       0.003
  -0.16666667  0.33333333  0.12500000       0.003
  -0.00000000  0.41666667  0.12500000       0.003
  -0.41666667  0.41666667 -0.12500000       0.003
   0.08333333  0.41666667  0.12500000       0.003
   0.50000000  0.41666667 -0.12500000       0.003
   0.16666667  0.41666667  0.12500000       0.003
   0.41666667  0.41666667 -0.12500000       0.003
   0.25000000  0.41666667  0.12500000       0.003
   0.33333333  0.41666667 -0.12500000       0.003
  -0.33333333  0.41666667  0.12500000       0.003
  -0.08333333  0.41666667 -0.12500000       0.003
  -0.25000000  0.41666667  0.12500000       0.003
  -0.16666667  0.41666667 -0.12500000       0.003
  -0.00000000  0.50000000  0.12500000       0.002
   0.50000000  0.50000000 -0.12500000       0.002
   0.08333333  0.50000000  0.12500000       0.003
   0.41666667  0.50000000 -0.12500000       0.003
   0.16666667  0.50000000  0.12500000       0.003
   0.33333333  0.50000000 -0.12500000       0.003
   0.25000000  0.50000000  0.12500000       0.003
   0.00000000  0.00000000  0.25000000       0.002
   0.08333333  0.00000000  0.25000000       0.003
   0.16666667  0.00000000  0.25000000       0.003
   0.25000000  0.00000000  0.25000000       0.003
   0.33333333  0.00000000  0.25000000       0.003
   0.41666667  0.00000000  0.25000000       0.003
   0.50000000  0.00000000  0.25000000       0.002
  -0.00000000  0.08333333  0.25000000       0.003
  -0.08333333  0.08333333 -0.25000000       0.003
   0.08333333  0.08333333  0.25000000       0.003
  -0.16666667  0.08333333 -0.25000000       0.003
   0.16666667  0.08333333  0.25000000       0.003
  -0.25000000  0.08333333 -0.25000000       0.003
   0.25000000  0.08333333  0.25000000       0.003
  -0.33333333  0.08333333 -0.25000000       0.003
   0.33333333  0.08333333  0.25000000       0.003
  -0.41666667  0.08333333 -0.25000000       0.003
   0.41666667  0.08333333  0.25000000       0.003
   0.50000000  0.08333333 -0.25000000       0.003
  -0.00000000  0.16666667  0.25000000       0.003
  -0.16666667  0.16666667 -0.25000000       0.003
   0.08333333  0.16666667  0.25000000       0.003
  -0.25000000  0.16666667 -0.25000000       0.003
   0.16666667  0.16666667  0.25000000       0.003
  -0.33333333  0.16666667 -0.25000000       0.003
   0.25000000  0.16666667  0.25000000       0.003
  -0.41666667  0.16666667 -0.25000000       0.003
   0.33333333  0.16666667  0.25000000       0.003
   0.50000000  0.16666667 -0.25000000       0.003
   0.41666667  0.16666667  0.25000000       0.003
  -0.08333333  0.16666667  0.25000000       0.003
  -0.00000000  0.25000000  0.25000000       0.003
  -0.25000000  0.25000000 -0.25000000       0.003
   0.08333333  0.25000000  0.25000000       0.003
  -0.33333333  0.25000000 -0.25000000       0.003
   0.16666667  0.25000000  0.25000000       0.003
  -0.41666667  0.25000000 -0.25000000       0.003
   0.25000000  0.25000000  0.25000000       0.003
   0.50000000  0.25000000 -0.25000000       0.003
   0.33333333  0.25000000  0.25000000       0.003
   0.41666667  0.25000000 -0.25000000       0.003
  -0.16666667  0.25000000  0.25000000       0.003
  -0.08333333  0.25000000 -0.25000000       0.003
  -0.00000000  0.33333333  0.25000000       0.003
  -0.33333333  0.33333333 -0.25000000       0.003
   0.08333333  0.33333333  0.25000000       0.003
  -0.41666667  0.33333333 -0.25000000       0.003
   0.16666667  0.33333333  0.25000000       0.003
   0.50000000  0.33333333 -0.25000000       0.003
   0.25000000  0.33333333  0.25000000       0.003
   0.41666667  0.33333333 -0.25000000       0.003
   0.33333333  0.33333333  0.25000000       0.003
  -0.25000000  0.33333333  0.25000000       0.003
  -0.08333333  0.33333333 -0.25000000       0.003
  -0.16666667  0.33333333  0.25000000       0.003
  -0.00000000  0.41666667  0.25000000       0.003
  -0.41666667  0.41666667 -0.25000000       0.003
   0.08333333  0.41666667  0.25000000       0.003
   0.50000000  0.41666667 -0.25000000       0.003
   0.16666667  0.41666667  0.25000000       0.003
   0.41666667  0.41666667 -0.25000000       0.003
   0.25000000  0.41666667  0.25000000       0.003
   0.33333333  0.41666667 -0.25000000       0.003
  -0.33333333  0.41666667  0.25000000       0.003
  -0.08333333  0.41666667 -0.25000000       0.003
  -0.25000000  0.41666667  0.25000000       0.003
  -0.16666667  0.41666667 -0.25000000       0.003
  -0.00000000  0.50000000  0.25000000       0.002
[...]
      3      -1.3517      2.00000
      4      -1.3517      2.00000
      5      -0.5238      2.00000
      6      -0.5238      2.00000
      7      -0.2294      2.00000
      8      -0.2294      2.00000
      9      -0.0423      2.00000
     10      -0.0423      2.00000
     11       2.2192      0.00000
     12       2.2192      0.00000
     13       5.3089      0.00000
     14       5.3089      0.00000
     15      13.1361      0.00000
     16      13.1361      0.00000

 k-point   355 :       0.5000    0.4167    0.5000
  band No.  band energies     occupation 
      1      -1.9223      2.00000
      2      -1.9223      2.00000
      3      -1.3516      2.00000
      4      -1.3516      2.00000
      5      -0.5238      2.00000
      6      -0.5238      2.00000
      7      -0.2294      2.00000
      8      -0.2294      2.00000
      9      -0.0424      2.00000
     10      -0.0424      2.00000
     11       2.2191      0.00000
     12       2.2191      0.00000
     13       5.3092      0.00000
     14       5.3092      0.00000
     15      13.1360      0.00000
     16      13.1360      0.00000

 k-point   356 :       0.1667    0.4167    0.5000
  band No.  band energies     occupation 
      1      -1.7370      2.00000
      2      -1.7370      2.00000
      3      -1.2760      2.00000
      4      -1.2760      2.00000
      5      -0.7225      2.00000
      6      -0.7225      2.00000
      7      -0.3617      2.00000
      8      -0.3617      2.00000
      9      -0.0776      2.00000
     10      -0.0776      2.00000
     11       3.2779      0.00000
     12       3.2779      0.00000
     13       5.0731      0.00000
     14       5.0731      0.00000
     15      10.5284      0.00000
     16      10.5284      0.00000

 k-point   357 :       0.4167    0.4167    0.5000
  band No.  band energies     occupation 
      1      -1.7371      2.00000
      2      -1.7371      2.00000
      3      -1.2759      2.00000
      4      -1.2759      2.00000
      5      -0.7224      2.00000
      6      -0.7224      2.00000
      7      -0.3618      2.00000
      8      -0.3618      2.00000
      9      -0.0776      2.00000
     10      -0.0776      2.00000
     11       3.2777      0.00000
     12       3.2777      0.00000
     13       5.0734      0.00000
     14       5.0734      0.00000
     15      10.5284      0.00000
     16      10.5284      0.00000

 k-point   358 :       0.2500    0.4167    0.5000
  band No.  band energies     occupation 
      1      -1.5231      2.00000
      2      -1.5231      2.00000
      3      -1.1933      2.00000
      4      -1.1933      2.00000
      5      -0.9346      2.00000
      6      -0.9346      2.00000
      7      -0.5330      2.00000
      8      -0.5330      2.00000
      9      -0.0767      2.00000
     10      -0.0767      2.00000
     11       3.6768      0.00000
     12       3.6768      0.00000
     13       6.1428      0.00000
     14       6.1428      0.00000
     15       8.1510      0.00000
     16       8.1510      0.00000

 k-point   359 :       0.3333    0.4167    0.5000
  band No.  band energies     occupation 
      1      -1.5232      2.00000
      2      -1.5232      2.00000
      3      -1.1931      2.00000
      4      -1.1931      2.00000
      5      -0.9346      2.00000
      6      -0.9346      2.00000
      7      -0.5330      2.00000
      8      -0.5330      2.00000
      9      -0.0767      2.00000
     10      -0.0767      2.00000
     11       3.6768      0.00000
     12       3.6768      0.00000
     13       6.1430      0.00000
     14       6.1430      0.00000
     15       8.1509      0.00000
     16       8.1509      0.00000

 k-point   360 :      -0.3333    0.4167    0.5000
  band No.  band energies     occupation 
      1      -2.0055      2.00000
      2      -2.0055      2.00000
      3      -1.3151      2.00000
      4      -1.3151      2.00000
      5      -0.5640      2.00000
      6      -0.5640      2.00000
      7      -0.4259      2.00000
      8      -0.4259      2.00000
      9      -0.0617      2.00000
     10      -0.0617      2.00000
     11       0.9507      2.00000
     12       0.9507      2.00000
     13       7.5208      0.00000
     14       7.5208      0.00000
     15      13.2150      0.00000
     16      13.2150      0.00000

 k-point   361 :      -0.0833    0.4167    0.5000
  band No.  band energies     occupation 
      1      -2.0055      2.00000
      2      -2.0055      2.00000
      3      -1.3152      2.00000
      4      -1.3152      2.00000
      5      -0.5640      2.00000
      6      -0.5640      2.00000
      7      -0.4259      2.00000
      8      -0.4259      2.00000
      9      -0.0617      2.00000
     10      -0.0617      2.00000
     11       0.9508      2.00000
     12       0.9508      2.00000
     13       7.5206      0.00000
     14       7.5206      0.00000
     15      13.2153      0.00000
     16      13.2153      0.00000

 k-point   362 :      -0.2500    0.4167    0.5000
  band No.  band energies     occupation 
      1      -1.9300      2.00000
      2      -1.9300      2.00000
      3      -1.2275      2.00000
      4      -1.2275      2.00000
      5      -0.9235      2.00000
      6      -0.9235      2.00000
      7      -0.5194      2.00000
      8      -0.5194      2.00000
      9      -0.0520      2.00000
     10      -0.0520      2.00000
     11       0.8910      2.00000
     12       0.8910      2.00000
     13       9.2142      0.00000
     14       9.2142      0.00000
     15      11.2385      0.00000
     16      11.2385      0.00000

 k-point   363 :      -0.1667    0.4167    0.5000
  band No.  band energies     occupation 
      1      -1.9300      2.00000
      2      -1.9300      2.00000
      3      -1.2277      2.00000
      4      -1.2277      2.00000
      5      -0.9233      2.00000
      6      -0.9233      2.00000
      7      -0.5194      2.00000
      8      -0.5194      2.00000
      9      -0.0520      2.00000
     10      -0.0520      2.00000
     11       0.8910      2.00000
     12       0.8910      2.00000
     13       9.2141      0.00000
     14       9.2141      0.00000
     15      11.2387      0.00000
     16      11.2387      0.00000

 k-point   364 :      -0.0000    0.5000    0.5000
  band No.  band energies     occupation 
      1      -1.9836      2.00000
      2      -1.9836      2.00000
      3      -1.3858      2.00000
      4      -1.3858      2.00000
      5      -0.4439      2.00000
      6      -0.4439      2.00000
      7      -0.1712      2.00000
      8      -0.1712      2.00000
      9       0.0325      2.00000
     10       0.0325      2.00000
     11       2.3000      0.00000
     12       2.3000      0.00000
     13       4.7631      0.00000
     14       4.7631      0.00000
     15      14.6805      0.00000
     16      14.6805      0.00000

 k-point   365 :       0.5000    0.5000    0.5000
  band No.  band energies     occupation 
      1      -1.9836      2.00000
      2      -1.9836      2.00000
      3      -1.3857      2.00000
      4      -1.3857      2.00000
      5      -0.4440      2.00000
      6      -0.4440      2.00000
      7      -0.1711      2.00000
      8      -0.1711      2.00000
      9       0.0324      2.00000
     10       0.0324      2.00000
     11       2.2998      0.00000
     12       2.2998      0.00000
     13       4.7634      0.00000
     14       4.7634      0.00000
     15      14.6802      0.00000
     16      14.6802      0.00000

 k-point   366 :       0.0833    0.5000    0.5000
  band No.  band energies     occupation 
      1      -1.9222      2.00000
      2      -1.9222      2.00000
      3      -1.3517      2.00000
      4      -1.3517      2.00000
      5      -0.5238      2.00000
      6      -0.5238      2.00000
      7      -0.2293      2.00000
      8      -0.2293      2.00000
      9      -0.0424      2.00000
     10      -0.0424      2.00000
     11       2.2192      0.00000
     12       2.2192      0.00000
     13       5.3090      0.00000
     14       5.3090      0.00000
     15      13.1361      0.00000
     16      13.1361      0.00000

 k-point   367 :       0.4167    0.5000    0.5000
  band No.  band energies     occupation 
      1      -1.9223      2.00000
      2      -1.9223      2.00000
      3      -1.3516      2.00000
      4      -1.3516      2.00000
      5      -0.5238      2.00000
      6      -0.5238      2.00000
      7      -0.2294      2.00000
      8      -0.2294      2.00000
      9      -0.0424      2.00000
     10      -0.0424      2.00000
     11       2.2190      0.00000
     12       2.2190      0.00000
     13       5.3093      0.00000
     14       5.3093      0.00000
     15      13.1359      0.00000
     16      13.1359      0.00000

 k-point   368 :       0.1667    0.5000    0.5000
  band No.  band energies     occupation 
      1      -1.7617      2.00000
      2      -1.7617      2.00000
      3      -1.2652      2.00000
      4      -1.2652      2.00000
      5      -0.7447      2.00000
      6      -0.7447      2.00000
      7      -0.4631      2.00000
      8      -0.4631      2.00000
      9      -0.0499      2.00000
     10      -0.0499      2.00000
     11       2.1239      0.00000
     12       2.1239      0.00000
     13       6.6565      0.00000
     14       6.6565      0.00000
     15      10.7144      0.00000
     16      10.7144      0.00000

 k-point   369 :       0.3333    0.5000    0.5000
  band No.  band energies     occupation 
      1      -1.7618      2.00000
      2      -1.7618      2.00000
      3      -1.2651      2.00000
      4      -1.2651      2.00000
      5      -0.7448      2.00000
      6      -0.7448      2.00000
      7      -0.4632      2.00000
      8      -0.4632      2.00000
      9      -0.0499      2.00000
     10      -0.0499      2.00000
     11       2.1238      0.00000
     12       2.1238      0.00000
     13       6.6567      0.00000
     14       6.6567      0.00000
     15      10.7143      0.00000
     16      10.7143      0.00000

 k-point   370 :       0.2500    0.5000    0.5000
  band No.  band energies     occupation 
      1      -1.6422      2.00000
      2      -1.6422      2.00000
      3      -1.1875      2.00000
      4      -1.1875      2.00000
      5      -0.9462      2.00000
      6      -0.9462      2.00000
      7      -0.5644      2.00000
      8      -0.5644      2.00000
      9      -0.0425      2.00000
     10      -0.0425      2.00000
     11       2.0937      0.00000
     12       2.0937      0.00000
     13       8.3658      0.00000
     14       8.3658      0.00000
     15       8.6474      0.00000
     16       8.6474      0.00000


--------------------------------------------------------------------------------------------------------


 soft charge-density along one line, spin component           1
         0         1         2         3         4         5         6         7         8         9
 total charge-density along one line
 
 pseudopotential strength for first ion, spin component:           1
 -7.747   0.000  -0.000   0.000   0.000   0.332  -0.000   0.000
  0.000  -7.730   0.000  -0.000  -0.000  -0.000   0.324  -0.000
 -0.000   0.000  -7.741  -0.000  -0.000   0.000  -0.000   0.329
  0.000  -0.000  -0.000  -7.730  -0.000  -0.000   0.000   0.000
  0.000  -0.000  -0.000  -0.000  -7.747  -0.000   0.000   0.000
  0.332  -0.000   0.000  -0.000  -0.000   1.429  -0.000  -0.000
 -0.000   0.324  -0.000   0.000   0.000  -0.000   1.432   0.000
  0.000  -0.000   0.329   0.000   0.000  -0.000   0.000   1.430
 -0.000   0.000   0.000   0.324   0.000   0.000  -0.000  -0.000
 -0.000   0.000   0.000   0.000   0.332   0.000  -0.000  -0.000
  0.000  -0.000  -0.001   0.000   0.000  -0.000  -0.000   0.000
  0.000   0.000   0.000  -0.000   0.000  -0.000  -0.000  -0.000
 -0.000   0.000   0.000  -0.000   0.000   0.000  -0.000  -0.000
 -0.000   0.000   0.000   0.000  -0.000  -0.000  -0.000  -0.000
 -0.000  -0.000  -0.000   0.000   0.000   0.000  -0.000  -0.000
  0.000  -0.000  -0.000   0.000  -0.000   0.000   0.000   0.000
  0.000  -0.000  -0.000  -0.000   0.000  -0.000  -0.000   0.000
  0.000   0.000   0.000  -0.000  -0.000  -0.000  -0.000  -0.000
 total augmentation occupancy for first ion, spin component:           1
  1.901   0.000  -0.000   0.000   0.000  -0.060   0.000  -0.000   0.000   0.000   0.000  -0.000  -0.005   0.000   0.000   0.001
  0.000   1.907   0.000   0.000   0.000   0.000  -0.079   0.000  -0.000   0.000   0.000   0.000   0.000   0.000   0.000   0.000
 -0.000   0.000   1.892   0.000  -0.000  -0.000   0.000  -0.056   0.000  -0.000  -0.012   0.008   0.000   0.000  -0.000  -0.000
  0.000   0.000   0.000   1.907   0.000   0.000  -0.000   0.000  -0.079   0.000   0.000   0.000   0.000  -0.000   0.000   0.000
  0.000   0.000  -0.000   0.000   1.900   0.000   0.000  -0.000   0.000  -0.060   0.000  -0.000  -0.000   0.000   0.005   0.000
 -0.060   0.000  -0.000   0.000   0.000   0.034   0.000   0.000   0.000  -0.000   0.000  -0.000  -0.004   0.000   0.000   0.000
  0.000  -0.079   0.000  -0.000   0.000   0.000   0.030   0.000  -0.000   0.000   0.000   0.000   0.000   0.000   0.000   0.000
 -0.000   0.000  -0.056   0.000  -0.000   0.000   0.000   0.032   0.000   0.000  -0.016   0.004   0.000   0.000  -0.000  -0.000
  0.000  -0.000   0.000  -0.079   0.000   0.000  -0.000   0.000   0.030   0.000   0.000   0.000   0.000  -0.000   0.000   0.000
  0.000   0.000  -0.000   0.000  -0.060  -0.000   0.000   0.000   0.000   0.034   0.000  -0.000  -0.000   0.000   0.004  -0.000
  0.000   0.000  -0.012   0.000   0.000   0.000   0.000  -0.016   0.000   0.000   1.011  -0.218   0.000   0.000  -0.000  -0.000
 -0.000   0.000   0.008   0.000  -0.000  -0.000   0.000   0.004   0.000  -0.000  -0.218   0.072  -0.000   0.000   0.000   0.000
 -0.005   0.000   0.000   0.000  -0.000  -0.004   0.000   0.000   0.000  -0.000   0.000  -0.000   0.105   0.000   0.000  -0.007
  0.000   0.000   0.000  -0.000   0.000   0.000   0.000   0.000  -0.000   0.000   0.000   0.000   0.000   0.093   0.000   0.000
  0.000   0.000  -0.000   0.000   0.005   0.000   0.000  -0.000   0.000   0.004  -0.000   0.000   0.000   0.000   0.105   0.000
  0.001   0.000  -0.000   0.000   0.000   0.000   0.000  -0.000   0.000  -0.000  -0.000   0.000  -0.007   0.000   0.000   0.000
  0.000  -0.000   0.000   0.000   0.000   0.000  -0.000   0.000  -0.000   0.000   0.000   0.000   0.000  -0.006   0.000   0.000
 -0.000   0.000  -0.000   0.000  -0.001  -0.000   0.000   0.000   0.000  -0.000   0.000   0.000   0.000   0.000  -0.007  -0.000


------------------------ aborting loop because EDIFF is reached ----------------------------------------


    CHARGE:  cpu time      0.0402: real time      0.0439
    FORLOC:  cpu time      0.0001: real time      0.0001
    FORNL :  cpu time      0.1372: real time      0.1373
    STRESS:  cpu time      0.5749: real time      0.5829
    FORCOR:  cpu time      0.0026: real time      0.0026
    FORHAR:  cpu time      0.0004: real time      0.0004
    MIXING:  cpu time      0.0002: real time      0.0002
    OFIELD:  cpu time      0.0000: real time      0.0000

  FORCE on cell =-STRESS in cart. coord.  units (eV):
  Direction    XX          YY          ZZ          XY          YZ          ZX
  --------------------------------------------------------------------------------------
  Alpha Z   153.82383   153.82383   153.82383
  Ewald    -638.81283  -638.82156  -696.34113    -0.00775    -0.00000    -0.00000
  Hartree   261.01236   261.00667   226.41844    -0.00365    -0.00000    -0.00000
  E(xc)    -124.92028  -124.91974  -124.97356    -0.00048     0.00000     0.00000
  Local     157.17011   157.18982   248.49010     0.00625     0.00000     0.00000
  n-local   -78.20720   -78.20452   -78.54461    -0.00208    -0.01595     0.36612
  augment   111.84282   111.83716   112.12915     0.00512     0.00000     0.00000
  Kinetic   154.27962   154.28002   154.72870     0.00000    -0.05338     0.26920
  Fock        0.00000     0.00000     0.00000     0.00000     0.00000     0.00000
  -------------------------------------------------------------------------------------
  Total      -3.81157    -3.80832    -4.26908    -0.00259     0.00000     0.00000
  in kB    -184.61773  -184.46017  -206.77777    -0.12563     0.00000     0.00000
  external pressure =     -191.95 kB  Pullay stress =        0.00 kB


 VOLUME and BASIS-vectors are now :
 -----------------------------------------------------------------------------
  energy-cutoff  :      292.00
  volume of cell :       33.08
      direct lattice vectors                 reciprocal lattice vectors
     2.424800000 -1.400000000  0.000000000     0.412405147  0.000000000  0.000000000
     0.000000000  2.800000000  0.000000000     0.206202573  0.357142857  0.000000000
     0.000000000  0.000000000  4.872000000     0.000000000  0.000000000  0.205254516

  length of vectors
     2.799938399  2.800000000  4.872000000     0.412405147  0.412396074  0.205254516


 FORCES acting on ions
    electron-ion (+dipol)            ewald-force                    non-local-force                 convergence-correction
 -----------------------------------------------------------------------------------------------
   -.177E-03 0.316E-02 0.702E-09   0.158E-03 -.309E-02 -.324E-13   0.805E-04 -.202E-04 -.151E-19   -.778E-04 -.288E-04 -.103E-12
   0.185E-03 -.318E-02 -.677E-09   -.158E-03 0.309E-02 0.324E-13   -.805E-04 0.202E-04 0.160E-19   0.778E-04 0.288E-04 0.270E-12
 -----------------------------------------------------------------------------------------------
   0.824E-05 -.143E-04 0.251E-10   -.254E-15 0.426E-14 -.110E-16   0.000E+00 0.339E-20 0.868E-21   -.132E-08 0.231E-08 0.166E-12
 
 
 POSITION                                       TOTAL-FORCE (eV/Angst)
 -----------------------------------------------------------------------------------
      0.00000      0.00000      0.00000        -0.000021      0.000031      0.000000
      1.61661     -0.00014      2.43600         0.000021     -0.000031     -0.000000
 -----------------------------------------------------------------------------------
    total drift:                                0.000008     -0.000014      0.000000


--------------------------------------------------------------------------------------------------------



  FREE ENERGIE OF THE ION-ELECTRON SYSTEM (eV)
  ---------------------------------------------------
  free  energy   TOTEN  =        -6.69303532 eV

  energy  without entropy=       -6.69167853  energy(sigma->0) =       -6.69235692
 


--------------------------------------------------------------------------------------------------------


    POTLOK:  cpu time      0.0036: real time      0.0036


--------------------------------------------------------------------------------------------------------


 writing wavefunctions
     LOOP+:  cpu time     23.3553: real time     25.2133
    4ORBIT:  cpu time      0.0000: real time      0.0000

 total amount of memory used by VASP MPI-rank0    71898. kBytes
=======================================================================

   base      :      30000. kBytes
   nonl-proj :      20685. kBytes
   fftplans  :        414. kBytes
   grid      :        688. kBytes
   one-center:         31. kBytes
   wavefun   :      20080. kBytes
 
  
  
 General timing and accounting informations for this job:
 ========================================================
  
                  Total CPU time used (sec):       23.784
                            User time (sec):       21.352
                          System time (sec):        2.432
                         Elapsed time (sec):       26.137
  
                   Maximum memory used (kb):      164100.
                   Average memory used (kb):          N/A
  
                          Minor page faults:        22204
                          Major page faults:            0
                 Voluntary context switches:          238
