<?xml version="1.0" encoding="ISO-8859-1"?>
<modeling>
 <generator>
  <i name="program" type="string">vasp </i>
  <i name="version" type="string">6.3.0  </i>
  <i name="subversion" type="string">20Jan22 (build Sep 29 2023 15:57:01) complex                          parallel </i>
  <i name="platform" type="string">LinuxIFC </i>
  <i name="date" type="string">2023 11 06 </i>
  <i name="time" type="string">17:40:17 </i>
 </generator>
 <incar>
  <i type="string" name="SYSTEM">sc Cu</i>
  <i type="int" name="ISTART">     0</i>
  <i type="int" name="ICHARG">     0</i>
  <i name="ENCUT">    292.00000000</i>
  <i type="int" name="ISMEAR">     0</i>
  <i name="SIGMA">      0.05000000</i>
 </incar>
 <primitive_cell>
  <structure name="primitive_cell" >
   <crystal>
    <varray name="basis" >
     <v>       2.42480000      -1.40000000       0.00000000 </v>
     <v>       0.00000000       2.80000000       0.00000000 </v>
     <v>       0.00000000       0.00000000       4.87200000 </v>
    </varray>
    <i name="volume">     33.07815168 </i>
    <varray name="rec_basis" >
     <v>       0.41240515       0.00000000       0.00000000 </v>
     <v>       0.20620257       0.35714286       0.00000000 </v>
     <v>       0.00000000       0.00000000       0.20525452 </v>
    </varray>
   </crystal>
   <varray name="positions" >
    <v>       0.00000000       0.00000000       0.00000000 </v>
    <v>       0.66670000       0.33330000       0.50000000 </v>
   </varray>
  </structure>
  <varray name="primitive_index" >
   <v type="int" >        1 </v>
   <v type="int" >        2 </v>
  </varray>
 </primitive_cell>
 <kpoints>
  <generation param="Gamma">
   <v type="int" name="divisions">      12       12        8 </v>
   <v name="usershift">      0.00000000       0.00000000       0.00000000 </v>
   <v name="genvec1">      0.08333333       0.00000000       0.00000000 </v>
   <v name="genvec2">      0.00000000       0.08333333       0.00000000 </v>
   <v name="genvec3">      0.00000000       0.00000000       0.12500000 </v>
   <v name="shift">      0.00000000       0.00000000       0.00000000 </v>
  </generation>
  <varray name="kpointlist" >
   <v>       0.00000000       0.00000000       0.00000000 </v>
   <v>       0.08333333       0.00000000       0.00000000 </v>
   <v>       0.16666667       0.00000000       0.00000000 </v>
   <v>       0.25000000       0.00000000       0.00000000 </v>
   <v>       0.33333333       0.00000000       0.00000000 </v>
   <v>       0.41666667       0.00000000       0.00000000 </v>
   <v>       0.50000000       0.00000000       0.00000000 </v>
   <v>      -0.00000000       0.08333333       0.00000000 </v>
   <v>      -0.08333333       0.08333333       0.00000000 </v>
   <v>       0.08333333       0.08333333       0.00000000 </v>
   <v>      -0.16666667       0.08333333       0.00000000 </v>
   <v>       0.16666667       0.08333333       0.00000000 </v>
   <v>      -0.25000000       0.08333333       0.00000000 </v>
   <v>       0.25000000       0.08333333       0.00000000 </v>
   <v>      -0.33333333       0.08333333       0.00000000 </v>
   <v>       0.33333333       0.08333333       0.00000000 </v>
   <v>      -0.41666667       0.08333333       0.00000000 </v>
   <v>       0.41666667       0.08333333       0.00000000 </v>
   <v>       0.50000000       0.08333333       0.00000000 </v>
   <v>      -0.00000000       0.16666667       0.00000000 </v>
   <v>      -0.16666667       0.16666667       0.00000000 </v>
   <v>       0.08333333       0.16666667       0.00000000 </v>
   <v>      -0.25000000       0.16666667       0.00000000 </v>
   <v>       0.16666667       0.16666667       0.00000000 </v>
   <v>      -0.33333333       0.16666667       0.00000000 </v>
   <v>       0.25000000       0.16666667       0.00000000 </v>
   <v>      -0.41666667       0.16666667       0.00000000 </v>
   <v>       0.33333333       0.16666667       0.00000000 </v>
   <v>       0.50000000       0.16666667       0.00000000 </v>
   <v>       0.41666667       0.16666667       0.00000000 </v>
   <v>      -0.08333333       0.16666667       0.00000000 </v>
   <v>      -0.00000000       0.25000000       0.00000000 </v>
   <v>      -0.25000000       0.25000000       0.00000000 </v>
   <v>       0.08333333       0.25000000       0.00000000 </v>
   <v>      -0.33333333       0.25000000       0.00000000 </v>
   <v>       0.16666667       0.25000000       0.00000000 </v>
   <v>      -0.41666667       0.25000000       0.00000000 </v>
   <v>       0.25000000       0.25000000       0.00000000 </v>
   <v>       0.50000000       0.25000000       0.00000000 </v>
   <v>       0.33333333       0.25000000       0.00000000 </v>
   <v>       0.41666667       0.25000000       0.00000000 </v>
   <v>      -0.16666667       0.25000000       0.00000000 </v>
   <v>      -0.08333333       0.25000000       0.00000000 </v>
   <v>      -0.00000000       0.33333333       0.00000000 </v>
   <v>      -0.33333333       0.33333333       0.00000000 </v>
   <v>       0.08333333       0.33333333       0.00000000 </v>
   <v>      -0.41666667       0.33333333       0.00000000 </v>
   <v>       0.16666667       0.33333333       0.00000000 </v>
   <v>       0.50000000       0.33333333       0.00000000 </v>
   <v>       0.25000000       0.33333333       0.00000000 </v>
   <v>       0.41666667       0.33333333       0.00000000 </v>
   <v>       0.33333333       0.33333333       0.00000000 </v>
   <v>      -0.25000000       0.33333333       0.00000000 </v>
   <v>      -0.08333333       0.33333333       0.00000000 </v>
   <v>      -0.16666667       0.33333333       0.00000000 </v>
   <v>      -0.00000000       0.41666667       0.00000000 </v>
   <v>      -0.41666667       0.41666667       0.00000000 </v>
   <v>       0.08333333       0.41666667       0.00000000 </v>
   <v>       0.50000000       0.41666667       0.00000000 </v>
   <v>       0.16666667       0.41666667       0.00000000 </v>
   <v>       0.41666667       0.41666667       0.00000000 </v>
   <v>       0.25000000       0.41666667       0.00000000 </v>
   <v>       0.33333333       0.41666667       0.00000000 </v>
   <v>      -0.33333333       0.41666667       0.00000000 </v>
   <v>      -0.08333333       0.41666667       0.00000000 </v>
   <v>      -0.25000000       0.41666667       0.00000000 </v>
   <v>      -0.16666667       0.41666667       0.00000000 </v>
   <v>      -0.00000000       0.50000000       0.00000000 </v>
   <v>       0.50000000       0.50000000       0.00000000 </v>
   <v>       0.08333333       0.50000000       0.00000000 </v>
   <v>       0.41666667       0.50000000       0.00000000 </v>
   <v>       0.16666667       0.50000000       0.00000000 </v>
   <v>       0.33333333       0.50000000       0.00000000 </v>
   <v>       0.25000000       0.50000000       0.00000000 </v>
   <v>       0.00000000       0.00000000       0.12500000 </v>
   <v>       0.08333333       0.00000000       0.12500000 </v>
   <v>       0.16666667       0.00000000       0.12500000 </v>
   <v>       0.25000000       0.00000000       0.12500000 </v>
   <v>       0.33333333       0.00000000       0.12500000 </v>
   <v>       0.41666667       0.00000000       0.12500000 </v>
   <v>       0.50000000       0.00000000       0.12500000 </v>
   <v>      -0.00000000       0.08333333       0.12500000 </v>
   <v>      -0.08333333       0.08333333      -0.12500000 </v>
   <v>       0.08333333       0.08333333       0.12500000 </v>
   <v>      -0.16666667       0.08333333      -0.12500000 </v>
   <v>       0.16666667       0.08333333       0.12500000 </v>
   <v>      -0.25000000       0.08333333      -0.12500000 </v>
   <v>       0.25000000       0.08333333       0.12500000 </v>
   <v>      -0.33333333       0.08333333      -0.12500000 </v>
   <v>       0.33333333       0.08333333       0.12500000 </v>
   <v>      -0.41666667       0.08333333      -0.12500000 </v>
   <v>       0.41666667       0.08333333       0.12500000 </v>
   <v>       0.50000000       0.08333333      -0.12500000 </v>
   <v>      -0.00000000       0.16666667       0.12500000 </v>
   <v>      -0.16666667       0.16666667      -0.12500000 </v>
   <v>       0.08333333       0.16666667       0.12500000 </v>
   <v>      -0.25000000       0.16666667      -0.12500000 </v>
   <v>       0.16666667       0.16666667       0.12500000 </v>
   <v>      -0.33333333       0.16666667      -0.12500000 </v>
   <v>       0.25000000       0.16666667       0.12500000 </v>
   <v>      -0.41666667       0.16666667      -0.12500000 </v>
   <v>       0.33333333       0.16666667       0.12500000 </v>
   <v>       0.50000000       0.16666667      -0.12500000 </v>
   <v>       0.41666667       0.16666667       0.12500000 </v>
   <v>      -0.08333333       0.16666667       0.12500000 </v>
   <v>      -0.00000000       0.25000000       0.12500000 </v>
   <v>      -0.25000000       0.25000000      -0.12500000 </v>
   <v>       0.08333333       0.25000000       0.12500000 </v>
   <v>      -0.33333333       0.25000000      -0.12500000 </v>
   <v>       0.16666667       0.25000000       0.12500000 </v>
   <v>      -0.41666667       0.25000000      -0.12500000 </v>
   <v>       0.25000000       0.25000000       0.12500000 </v>
   <v>       0.50000000       0.25000000      -0.12500000 </v>
   <v>       0.33333333       0.25000000       0.12500000 </v>
   <v>       0.41666667       0.25000000      -0.12500000 </v>
   <v>      -0.16666667       0.25000000       0.12500000 </v>
   <v>      -0.08333333       0.25000000      -0.12500000 </v>
   <v>      -0.00000000       0.33333333       0.12500000 </v>
   <v>      -0.33333333       0.33333333      -0.12500000 </v>
   <v>       0.08333333       0.33333333       0.12500000 </v>
   <v>      -0.41666667       0.33333333      -0.12500000 </v>
   <v>       0.16666667       0.33333333       0.12500000 </v>
   <v>       0.50000000       0.33333333      -0.12500000 </v>
   <v>       0.25000000       0.33333333       0.12500000 </v>
   <v>       0.41666667       0.33333333      -0.12500000 </v>
   <v>       0.33333333       0.33333333       0.12500000 </v>
   <v>      -0.25000000       0.33333333       0.12500000 </v>
   <v>      -0.08333333       0.33333333      -0.12500000 </v>
   <v>      -0.16666667       0.33333333       0.12500000 </v>
   <v>      -0.00000000       0.41666667       0.12500000 </v>
   <v>      -0.41666667       0.41666667      -0.12500000 </v>
   <v>       0.08333333       0.41666667       0.12500000 </v>
   <v>       0.50000000       0.41666667      -0.12500000 </v>
   <v>       0.16666667       0.41666667       0.12500000 </v>
   <v>       0.41666667       0.41666667      -0.12500000 </v>
   <v>       0.25000000       0.41666667       0.12500000 </v>
   <v>       0.33333333       0.41666667      -0.12500000 </v>
   <v>      -0.33333333       0.41666667       0.12500000 </v>
   <v>      -0.08333333       0.41666667      -0.12500000 </v>
   <v>      -0.25000000       0.41666667       0.12500000 </v>
   <v>      -0.16666667       0.41666667      -0.12500000 </v>
   <v>      -0.00000000       0.50000000       0.12500000 </v>
   <v>       0.50000000       0.50000000      -0.12500000 </v>
   <v>       0.08333333       0.50000000       0.12500000 </v>
   <v>       0.41666667       0.50000000      -0.12500000 </v>
   <v>       0.16666667       0.50000000       0.12500000 </v>
   <v>       0.33333333       0.50000000      -0.12500000 </v>
   <v>       0.25000000       0.50000000       0.12500000 </v>
   <v>       0.00000000       0.00000000       0.25000000 </v>
   <v>       0.08333333       0.00000000       0.25000000 </v>
   <v>       0.16666667       0.00000000       0.25000000 </v>
   <v>       0.25000000       0.00000000       0.25000000 </v>
   <v>       0.33333333       0.00000000       0.25000000 </v>
   <v>       0.41666667       0.00000000       0.25000000 </v>
   <v>       0.50000000       0.00000000       0.25000000 </v>
   <v>      -0.00000000       0.08333333       0.25000000 </v>
   <v>      -0.08333333       0.08333333      -0.25000000 </v>
   <v>       0.08333333       0.08333333       0.25000000 </v>
   <v>      -0.16666667       0.08333333      -0.25000000 </v>
   <v>       0.16666667       0.08333333       0.25000000 </v>
   <v>      -0.25000000       0.08333333      -0.25000000 </v>
   <v>       0.25000000       0.08333333       0.25000000 </v>
   <v>      -0.33333333       0.08333333      -0.25000000 </v>
   <v>       0.33333333       0.08333333       0.25000000 </v>
   <v>      -0.41666667       0.08333333      -0.25000000 </v>
   <v>       0.41666667       0.08333333       0.25000000 </v>
   <v>       0.50000000       0.08333333      -0.25000000 </v>
   <v>      -0.00000000       0.16666667       0.25000000 </v>
   <v>      -0.16666667       0.16666667      -0.25000000 </v>
   <v>       0.08333333       0.16666667       0.25000000 </v>
   <v>      -0.25000000       0.16666667      -0.25000000 </v>
   <v>       0.16666667       0.16666667       0.25000000 </v>
   <v>      -0.33333333       0.16666667      -0.25000000 </v>
   <v>       0.25000000       0.16666667       0.25000000 </v>
   <v>      -0.41666667       0.16666667      -0.25000000 </v>
   <v>       0.33333333       0.16666667       0.25000000 </v>
   <v>       0.50000000       0.16666667      -0.25000000 </v>
   <v>       0.41666667       0.16666667       0.25000000 </v>
   <v>      -0.08333333       0.16666667       0.25000000 </v>
   <v>      -0.00000000       0.25000000       0.25000000 </v>
   <v>      -0.25000000       0.25000000      -0.25000000 </v>
   <v>       0.08333333       0.25000000       0.25000000 </v>
   <v>      -0.33333333       0.25000000      -0.25000000 </v>
   <v>       0.16666667       0.25000000       0.25000000 </v>
   <v>      -0.41666667       0.25000000      -0.25000000 </v>
   <v>       0.25000000       0.25000000       0.25000000 </v>
   <v>       0.50000000       0.25000000      -0.25000000 </v>
   <v>       0.33333333       0.25000000       0.25000000 </v>
   <v>       0.41666667       0.25000000      -0.25000000 </v>
   <v>      -0.16666667       0.25000000       0.25000000 </v>
   <v>      -0.08333333       0.25000000      -0.25000000 </v>
   <v>      -0.00000000       0.33333333       0.25000000 </v>
   <v>      -0.33333333       0.33333333      -0.25000000 </v>
   <v>       0.08333333       0.33333333       0.25000000 </v>
   <v>      -0.41666667       0.33333333      -0.25000000 </v>
   <v>       0.16666667       0.33333333       0.25000000 </v>
   <v>       0.50000000       0.33333333      -0.25000000 </v>
   <v>       0.25000000       0.33333333       0.25000000 </v>
   <v>       0.41666667       0.33333333      -0.25000000 </v>
   <v>       0.33333333       0.33333333       0.25000000 </v>
   <v>      -0.25000000       0.33333333       0.25000000 </v>
   <v>      -0.08333333       0.33333333      -0.25000000 </v>
   <v>      -0.16666667       0.33333333       0.25000000 </v>
   <v>      -0.00000000       0.41666667       0.25000000 </v>
   <v>      -0.41666667       0.41666667      -0.25000000 </v>
   <v>       0.08333333       0.41666667       0.25000000 </v>
   <v>       0.50000000       0.41666667      -0.25000000 </v>
   <v>       0.16666667       0.41666667       0.25000000 </v>
   <v>       0.41666667       0.41666667      -0.25000000 </v>
   <v>       0.25000000       0.41666667       0.25000000 </v>
   <v>       0.33333333       0.41666667      -0.25000000 </v>
   <v>      -0.33333333       0.41666667       0.25000000 </v>
   <v>      -0.08333333       0.41666667      -0.25000000 </v>
   <v>      -0.25000000       0.41666667       0.25000000 </v>
   <v>      -0.16666667       0.41666667      -0.25000000 </v>
   <v>      -0.00000000       0.50000000       0.25000000 </v>
   <v>       0.50000000       0.50000000      -0.25000000 </v>
   <v>       0.08333333       0.50000000       0.25000000 </v>
   <v>       0.41666667       0.50000000      -0.25000000 </v>
   <v>       0.16666667       0.50000000       0.25000000 </v>
   <v>       0.33333333       0.50000000      -0.25000000 </v>
   <v>       0.25000000       0.50000000       0.25000000 </v>
   <v>       0.00000000       0.00000000       0.37500000 </v>
   <v>       0.08333333       0.00000000       0.37500000 </v>
   <v>       0.16666667       0.00000000       0.37500000 </v>
   <v>       0.25000000       0.00000000       0.37500000 </v>
   <v>       0.33333333       0.00000000       0.37500000 </v>
   <v>       0.41666667       0.00000000       0.37500000 </v>
   <v>       0.50000000       0.00000000       0.37500000 </v>
   <v>      -0.00000000       0.08333333       0.37500000 </v>
   <v>      -0.08333333       0.08333333      -0.37500000 </v>
   <v>       0.08333333       0.08333333       0.37500000 </v>
   <v>      -0.16666667       0.08333333      -0.37500000 </v>
   <v>       0.16666667       0.08333333       0.37500000 </v>
   <v>      -0.25000000       0.08333333      -0.37500000 </v>
   <v>       0.25000000       0.08333333       0.37500000 </v>
   <v>      -0.33333333       0.08333333      -0.37500000 </v>
   <v>       0.33333333       0.08333333       0.37500000 </v>
   <v>      -0.41666667       0.08333333      -0.37500000 </v>
   <v>       0.41666667       0.08333333       0.37500000 </v>
   <v>       0.50000000       0.08333333      -0.37500000 </v>
   <v>      -0.00000000       0.16666667       0.37500000 </v>
   <v>      -0.16666667       0.16666667      -0.37500000 </v>
   <v>       0.08333333       0.16666667       0.37500000 </v>
   <v>      -0.25000000       0.16666667      -0.37500000 </v>
   <v>       0.16666667       0.16666667       0.37500000 </v>
   <v>      -0.33333333       0.16666667      -0.37500000 </v>
   <v>       0.25000000       0.16666667       0.37500000 </v>
   <v>      -0.41666667       0.16666667      -0.37500000 </v>
   <v>       0.33333333       0.16666667       0.37500000 </v>
   <v>       0.50000000       0.16666667      -0.37500000 </v>
   <v>       0.41666667       0.16666667       0.37500000 </v>
   <v>      -0.08333333       0.16666667       0.37500000 </v>
   <v>      -0.00000000       0.25000000       0.37500000 </v>
   <v>      -0.25000000       0.25000000      -0.37500000 </v>
   <v>       0.08333333       0.25000000       0.37500000 </v>
   <v>      -0.33333333       0.25000000      -0.37500000 </v>
   <v>       0.16666667       0.25000000       0.37500000 </v>
   <v>      -0.41666667       0.25000000      -0.37500000 </v>
   <v>       0.25000000       0.25000000       0.37500000 </v>
   <v>       0.50000000       0.25000000      -0.37500000 </v>
   <v>       0.33333333       0.25000000       0.37500000 </v>
   <v>       0.41666667       0.25000000      -0.37500000 </v>
   <v>      -0.16666667       0.25000000       0.37500000 </v>
   <v>      -0.08333333       0.25000000      -0.37500000 </v>
   <v>      -0.00000000       0.33333333       0.37500000 </v>
   <v>      -0.33333333       0.33333333      -0.37500000 </v>
   <v>       0.08333333       0.33333333       0.37500000 </v>
   <v>      -0.41666667       0.33333333      -0.37500000 </v>
   <v>       0.16666667       0.33333333       0.37500000 </v>
   <v>       0.50000000       0.33333333      -0.37500000 </v>
   <v>       0.25000000       0.33333333       0.37500000 </v>
   <v>       0.41666667       0.33333333      -0.37500000 </v>
   <v>       0.33333333       0.33333333       0.37500000 </v>
   <v>      -0.25000000       0.33333333       0.37500000 </v>
   <v>      -0.08333333       0.33333333      -0.37500000 </v>
   <v>      -0.16666667       0.33333333       0.37500000 </v>
   <v>      -0.00000000       0.41666667       0.37500000 </v>
   <v>      -0.41666667       0.41666667      -0.37500000 </v>
   <v>       0.08333333       0.41666667       0.37500000 </v>
   <v>       0.50000000       0.41666667      -0.37500000 </v>
   <v>       0.16666667       0.41666667       0.37500000 </v>
   <v>       0.41666667       0.41666667      -0.37500000 </v>
   <v>       0.25000000       0.41666667       0.37500000 </v>
   <v>       0.33333333       0.41666667      -0.37500000 </v>
   <v>      -0.33333333       0.41666667       0.37500000 </v>
   <v>      -0.08333333       0.41666667      -0.37500000 </v>
   <v>      -0.25000000       0.41666667       0.37500000 </v>
   <v>      -0.16666667       0.41666667      -0.37500000 </v>
   <v>      -0.00000000       0.50000000       0.37500000 </v>
   <v>       0.50000000       0.50000000      -0.37500000 </v>
   <v>       0.08333333       0.50000000       0.37500000 </v>
   <v>       0.41666667       0.50000000      -0.37500000 </v>
   <v>       0.16666667       0.50000000       0.37500000 </v>
   <v>       0.33333333       0.50000000      -0.37500000 </v>
   <v>       0.25000000       0.50000000       0.37500000 </v>
   <v>       0.00000000       0.00000000       0.50000000 </v>
   <v>       0.08333333       0.00000000       0.50000000 </v>
   <v>       0.16666667       0.00000000       0.50000000 </v>
   <v>       0.25000000       0.00000000       0.50000000 </v>
   <v>       0.33333333       0.00000000       0.50000000 </v>
   <v>       0.41666667       0.00000000       0.50000000 </v>
   <v>       0.50000000       0.00000000       0.50000000 </v>
   <v>      -0.00000000       0.08333333       0.50000000 </v>
   <v>      -0.08333333       0.08333333       0.50000000 </v>
   <v>       0.08333333       0.08333333       0.50000000 </v>
   <v>      -0.16666667       0.08333333       0.50000000 </v>
   <v>       0.16666667       0.08333333       0.50000000 </v>
   <v>      -0.25000000       0.08333333       0.50000000 </v>
   <v>       0.25000000       0.08333333       0.50000000 </v>
   <v>      -0.33333333       0.08333333       0.50000000 </v>
   <v>       0.33333333       0.08333333       0.50000000 </v>
   <v>      -0.41666667       0.08333333       0.50000000 </v>
   <v>       0.41666667       0.08333333       0.50000000 </v>
   <v>       0.50000000       0.08333333       0.50000000 </v>
   <v>      -0.00000000       0.16666667       0.50000000 </v>
   <v>      -0.16666667       0.16666667       0.50000000 </v>
   <v>       0.08333333       0.16666667       0.50000000 </v>
   <v>      -0.25000000       0.16666667       0.50000000 </v>
   <v>       0.16666667       0.16666667       0.50000000 </v>
   <v>      -0.33333333       0.16666667       0.50000000 </v>
   <v>       0.25000000       0.16666667       0.50000000 </v>
   <v>      -0.41666667       0.16666667       0.50000000 </v>
   <v>       0.33333333       0.16666667       0.50000000 </v>
   <v>       0.50000000       0.16666667       0.50000000 </v>
   <v>       0.41666667       0.16666667       0.50000000 </v>
   <v>      -0.08333333       0.16666667       0.50000000 </v>
   <v>      -0.00000000       0.25000000       0.50000000 </v>
   <v>      -0.25000000       0.25000000       0.50000000 </v>
   <v>       0.08333333       0.25000000       0.50000000 </v>
   <v>      -0.33333333       0.25000000       0.50000000 </v>
   <v>       0.16666667       0.25000000       0.50000000 </v>
   <v>      -0.41666667       0.25000000       0.50000000 </v>
   <v>       0.25000000       0.25000000       0.50000000 </v>
   <v>       0.50000000       0.25000000       0.50000000 </v>
   <v>       0.33333333       0.25000000       0.50000000 </v>
   <v>       0.41666667       0.25000000       0.50000000 </v>
   <v>      -0.16666667       0.25000000       0.50000000 </v>
   <v>      -0.08333333       0.25000000       0.50000000 </v>
   <v>      -0.00000000       0.33333333       0.50000000 </v>
   <v>      -0.33333333       0.33333333       0.50000000 </v>
   <v>       0.08333333       0.33333333       0.50000000 </v>
   <v>      -0.41666667       0.33333333       0.50000000 </v>
   <v>       0.16666667       0.33333333       0.50000000 </v>
   <v>       0.50000000       0.33333333       0.50000000 </v>
   <v>       0.25000000       0.33333333       0.50000000 </v>
   <v>       0.41666667       0.33333333       0.50000000 </v>
   <v>       0.33333333       0.33333333       0.50000000 </v>
   <v>      -0.25000000       0.33333333       0.50000000 </v>
   <v>      -0.08333333       0.33333333       0.50000000 </v>
   <v>      -0.16666667       0.33333333       0.50000000 </v>
   <v>      -0.00000000       0.41666667       0.50000000 </v>
   <v>      -0.41666667       0.41666667       0.50000000 </v>
   <v>       0.08333333       0.41666667       0.50000000 </v>
   <v>       0.50000000       0.41666667       0.50000000 </v>
   <v>       0.16666667       0.41666667       0.50000000 </v>
   <v>       0.41666667       0.41666667       0.50000000 </v>
   <v>       0.25000000       0.41666667       0.50000000 </v>
   <v>       0.33333333       0.41666667       0.50000000 </v>
   <v>      -0.33333333       0.41666667       0.50000000 </v>
   <v>      -0.08333333       0.41666667       0.50000000 </v>
   <v>      -0.25000000       0.41666667       0.50000000 </v>
   <v>      -0.16666667       0.41666667       0.50000000 </v>
   <v>      -0.00000000       0.50000000       0.50000000 </v>
   <v>       0.50000000       0.50000000       0.50000000 </v>
   <v>       0.08333333       0.50000000       0.50000000 </v>
   <v>       0.41666667       0.50000000       0.50000000 </v>
   <v>       0.16666667       0.50000000       0.50000000 </v>
   <v>       0.33333333       0.50000000       0.50000000 </v>
   <v>       0.25000000       0.50000000       0.50000000 </v>
  </varray>
  <varray name="weights" >
   <v>       0.00086806 </v>
   <v>       0.00173611 </v>
   <v>       0.00173611 </v>
   <v>       0.00173611 </v>
   <v>       0.00173611 </v>
   <v>       0.00173611 </v>
   <v>       0.00086806 </v>
   <v>       0.00173611 </v>
   <v>       0.00173611 </v>
   <v>       0.00173611 </v>
   <v>       0.00173611 </v>
   <v>       0.00173611 </v>
   <v>       0.00173611 </v>
   <v>       0.00173611 </v>
   <v>       0.00173611 </v>
   <v>       0.00173611 </v>
   <v>       0.00173611 </v>
   <v>       0.00173611 </v>
   <v>       0.00173611 </v>
   <v>       0.00173611 </v>
   <v>       0.00173611 </v>
   <v>       0.00173611 </v>
   <v>       0.00173611 </v>
   <v>       0.00173611 </v>
   <v>       0.00173611 </v>
   <v>       0.00173611 </v>
   <v>       0.00173611 </v>
   <v>       0.00173611 </v>
   <v>       0.00173611 </v>
   <v>       0.00173611 </v>
   <v>       0.00173611 </v>
   <v>       0.00173611 </v>
   <v>       0.00173611 </v>
   <v>       0.00173611 </v>
   <v>       0.00173611 </v>
   <v>       0.00173611 </v>
   <v>       0.00173611 </v>
   <v>       0.00173611 </v>
   <v>       0.00173611 </v>
   <v>       0.00173611 </v>
   <v>       0.00173611 </v>
   <v>       0.00173611 </v>
   <v>       0.00173611 </v>
   <v>       0.00173611 </v>
   <v>       0.00173611 </v>
   <v>       0.00173611 </v>
   <v>       0.00173611 </v>
   <v>       0.00173611 </v>
   <v>       0.00173611 </v>
   <v>       0.00173611 </v>
   <v>       0.00173611 </v>
   <v>       0.00173611 </v>
   <v>       0.00173611 </v>
   <v>       0.00173611 </v>
   <v>       0.00173611 </v>
   <v>       0.00173611 </v>
   <v>       0.00173611 </v>
   <v>       0.00173611 </v>
   <v>       0.00173611 </v>
   <v>       0.00173611 </v>
   <v>       0.00173611 </v>
   <v>       0.00173611 </v>
   <v>       0.00173611 </v>
   <v>       0.00173611 </v>
   <v>       0.00173611 </v>
   <v>       0.00173611 </v>
   <v>       0.00173611 </v>
   <v>       0.00086806 </v>
   <v>       0.00086806 </v>
   <v>       0.00173611 </v>
   <v>       0.00173611 </v>
   <v>       0.00173611 </v>
   <v>       0.00173611 </v>
   <v>       0.00173611 </v>
   <v>       0.00173611 </v>
   <v>       0.00347222 </v>
   <v>       0.00347222 </v>
   <v>       0.00347222 </v>
   <v>       0.00347222 </v>
   <v>       0.00347222 </v>
   <v>       0.00173611 </v>
   <v>       0.00347222 </v>
   <v>       0.00347222 </v>
   <v>       0.00347222 </v>
   <v>       0.00347222 </v>
   <v>       0.00347222 </v>
   <v>       0.00347222 </v>
   <v>       0.00347222 </v>
   <v>       0.00347222 </v>
   <v>       0.00347222 </v>
   <v>       0.00347222 </v>
   <v>       0.00347222 </v>
   <v>       0.00347222 </v>
   <v>       0.00347222 </v>
   <v>       0.00347222 </v>
   <v>       0.00347222 </v>
   <v>       0.00347222 </v>
   <v>       0.00347222 </v>
   <v>       0.00347222 </v>
   <v>       0.00347222 </v>
   <v>       0.00347222 </v>
   <v>       0.00347222 </v>
   <v>       0.00347222 </v>
   <v>       0.00347222 </v>
   <v>       0.00347222 </v>
   <v>       0.00347222 </v>
   <v>       0.00347222 </v>
   <v>       0.00347222 </v>
   <v>       0.00347222 </v>
   <v>       0.00347222 </v>
   <v>       0.00347222 </v>
   <v>       0.00347222 </v>
   <v>       0.00347222 </v>
   <v>       0.00347222 </v>
   <v>       0.00347222 </v>
   <v>       0.00347222 </v>
   <v>       0.00347222 </v>
   <v>       0.00347222 </v>
   <v>       0.00347222 </v>
   <v>       0.00347222 </v>
   <v>       0.00347222 </v>
   <v>       0.00347222 </v>
   <v>       0.00347222 </v>
   <v>       0.00347222 </v>
   <v>       0.00347222 </v>
   <v>       0.00347222 </v>
   <v>       0.00347222 </v>
   <v>       0.00347222 </v>
   <v>       0.00347222 </v>
   <v>       0.00347222 </v>
   <v>       0.00347222 </v>
   <v>       0.00347222 </v>
   <v>       0.00347222 </v>
   <v>       0.00347222 </v>
   <v>       0.00347222 </v>
   <v>       0.00347222 </v>
   <v>       0.00347222 </v>
   <v>       0.00347222 </v>
   <v>       0.00347222 </v>
   <v>       0.00347222 </v>
   <v>       0.00347222 </v>
   <v>       0.00173611 </v>
   <v>       0.00173611 </v>
   <v>       0.00347222 </v>
   <v>       0.00347222 </v>
   <v>       0.00347222 </v>
   <v>       0.00347222 </v>
   <v>       0.00347222 </v>
   <v>       0.00173611 </v>
   <v>       0.00347222 </v>
   <v>       0.00347222 </v>
   <v>       0.00347222 </v>
   <v>       0.00347222 </v>
   <v>       0.00347222 </v>
   <v>       0.00173611 </v>
   <v>       0.00347222 </v>
   <v>       0.00347222 </v>
   <v>       0.00347222 </v>
   <v>       0.00347222 </v>
   <v>       0.00347222 </v>
   <v>       0.00347222 </v>
   <v>       0.00347222 </v>
   <v>       0.00347222 </v>
   <v>       0.00347222 </v>
   <v>       0.00347222 </v>
   <v>       0.00347222 </v>
   <v>       0.00347222 </v>
   <v>       0.00347222 </v>
   <v>       0.00347222 </v>
   <v>       0.00347222 </v>
   <v>       0.00347222 </v>
   <v>       0.00347222 </v>
   <v>       0.00347222 </v>
   <v>       0.00347222 </v>
   <v>       0.00347222 </v>
   <v>       0.00347222 </v>
   <v>       0.00347222 </v>
   <v>       0.00347222 </v>
   <v>       0.00347222 </v>
   <v>       0.00347222 </v>
   <v>       0.00347222 </v>
   <v>       0.00347222 </v>
   <v>       0.00347222 </v>
   <v>       0.00347222 </v>
   <v>       0.00347222 </v>
   <v>       0.00347222 </v>
   <v>       0.00347222 </v>
   <v>       0.00347222 </v>
   <v>       0.00347222 </v>
   <v>       0.00347222 </v>
   <v>       0.00347222 </v>
   <v>       0.00347222 </v>
   <v>       0.00347222 </v>
   <v>       0.00347222 </v>
   <v>       0.00347222 </v>
   <v>       0.00347222 </v>
   <v>       0.00347222 </v>
   <v>       0.00347222 </v>
   <v>       0.00347222 </v>
   <v>       0.00347222 </v>
   <v>       0.00347222 </v>
   <v>       0.00347222 </v>
   <v>       0.00347222 </v>
   <v>       0.00347222 </v>
   <v>       0.00347222 </v>
   <v>       0.00347222 </v>
   <v>       0.00347222 </v>
   <v>       0.00347222 </v>
   <v>       0.00347222 </v>
   <v>       0.00347222 </v>
   <v>       0.00347222 </v>
   <v>       0.00347222 </v>
   <v>       0.00347222 </v>
   <v>       0.00347222 </v>
   <v>       0.00347222 </v>
   <v>       0.00173611 </v>
   <v>       0.00173611 </v>
   <v>       0.00347222 </v>
   <v>       0.00347222 </v>
   <v>       0.00347222 </v>
   <v>       0.00347222 </v>
   <v>       0.00347222 </v>
   <v>       0.00173611 </v>
   <v>       0.00347222 </v>
   <v>       0.00347222 </v>
   <v>       0.00347222 </v>
   <v>       0.00347222 </v>
   <v>       0.00347222 </v>
   <v>       0.00173611 </v>
   <v>       0.00347222 </v>
   <v>       0.00347222 </v>
   <v>       0.00347222 </v>
   <v>       0.00347222 </v>
   <v>       0.00347222 </v>
   <v>       0.00347222 </v>
   <v>       0.00347222 </v>
   <v>       0.00347222 </v>
   <v>       0.00347222 </v>
   <v>       0.00347222 </v>
   <v>       0.00347222 </v>
   <v>       0.00347222 </v>
   <v>       0.00347222 </v>
   <v>       0.00347222 </v>
   <v>       0.00347222 </v>
   <v>       0.00347222 </v>
   <v>       0.00347222 </v>
   <v>       0.00347222 </v>
   <v>       0.00347222 </v>
   <v>       0.00347222 </v>
   <v>       0.00347222 </v>
   <v>       0.00347222 </v>
   <v>       0.00347222 </v>
   <v>       0.00347222 </v>
   <v>       0.00347222 </v>
   <v>       0.00347222 </v>
   <v>       0.00347222 </v>
   <v>       0.00347222 </v>
   <v>       0.00347222 </v>
   <v>       0.00347222 </v>
   <v>       0.00347222 </v>
   <v>       0.00347222 </v>
   <v>       0.00347222 </v>
   <v>       0.00347222 </v>
   <v>       0.00347222 </v>
   <v>       0.00347222 </v>
   <v>       0.00347222 </v>
   <v>       0.00347222 </v>
   <v>       0.00347222 </v>
   <v>       0.00347222 </v>
   <v>       0.00347222 </v>
   <v>       0.00347222 </v>
   <v>       0.00347222 </v>
   <v>       0.00347222 </v>
   <v>       0.00347222 </v>
   <v>       0.00347222 </v>
   <v>       0.00347222 </v>
   <v>       0.00347222 </v>
   <v>       0.00347222 </v>
   <v>       0.00347222 </v>
   <v>       0.00347222 </v>
   <v>       0.00347222 </v>
   <v>       0.00347222 </v>
   <v>       0.00347222 </v>
   <v>       0.00347222 </v>
   <v>       0.00347222 </v>
   <v>       0.00347222 </v>
   <v>       0.00347222 </v>
   <v>       0.00347222 </v>
   <v>       0.00347222 </v>
   <v>       0.00173611 </v>
   <v>       0.00173611 </v>
   <v>       0.00347222 </v>
   <v>       0.00347222 </v>
   <v>       0.00347222 </v>
   <v>       0.00347222 </v>
   <v>       0.00347222 </v>
   <v>       0.00086806 </v>
   <v>       0.00173611 </v>
   <v>       0.00173611 </v>
   <v>       0.00173611 </v>
   <v>       0.00173611 </v>
   <v>       0.00173611 </v>
   <v>       0.00086806 </v>
   <v>       0.00173611 </v>
   <v>       0.00173611 </v>
   <v>       0.00173611 </v>
   <v>       0.00173611 </v>
   <v>       0.00173611 </v>
   <v>       0.00173611 </v>
   <v>       0.00173611 </v>
   <v>       0.00173611 </v>
   <v>       0.00173611 </v>
   <v>       0.00173611 </v>
   <v>       0.00173611 </v>
   <v>       0.00173611 </v>
   <v>       0.00173611 </v>
   <v>       0.00173611 </v>
   <v>       0.00173611 </v>
   <v>       0.00173611 </v>
   <v>       0.00173611 </v>
   <v>       0.00173611 </v>
   <v>       0.00173611 </v>
   <v>       0.00173611 </v>
   <v>       0.00173611 </v>
   <v>       0.00173611 </v>
   <v>       0.00173611 </v>
   <v>       0.00173611 </v>
   <v>       0.00173611 </v>
   <v>       0.00173611 </v>
   <v>       0.00173611 </v>
   <v>       0.00173611 </v>
   <v>       0.00173611 </v>
   <v>       0.00173611 </v>
   <v>       0.00173611 </v>
   <v>       0.00173611 </v>
   <v>       0.00173611 </v>
   <v>       0.00173611 </v>
   <v>       0.00173611 </v>
   <v>       0.00173611 </v>
   <v>       0.00173611 </v>
   <v>       0.00173611 </v>
   <v>       0.00173611 </v>
   <v>       0.00173611 </v>
   <v>       0.00173611 </v>
   <v>       0.00173611 </v>
   <v>       0.00173611 </v>
   <v>       0.00173611 </v>
   <v>       0.00173611 </v>
   <v>       0.00173611 </v>
   <v>       0.00173611 </v>
   <v>       0.00173611 </v>
   <v>       0.00173611 </v>
   <v>       0.00173611 </v>
   <v>       0.00173611 </v>
   <v>       0.00173611 </v>
   <v>       0.00173611 </v>
   <v>       0.00173611 </v>
   <v>       0.00173611 </v>
   <v>       0.00173611 </v>
   <v>       0.00173611 </v>
   <v>       0.00173611 </v>
   <v>       0.00173611 </v>
   <v>       0.00173611 </v>
   <v>       0.00086806 </v>
   <v>       0.00086806 </v>
   <v>       0.00173611 </v>
   <v>       0.00173611 </v>
   <v>       0.00173611 </v>
   <v>       0.00173611 </v>
   <v>       0.00173611 </v>
  </varray>
 </kpoints>
 <parameters>
  <separator name="general" >
   <i type="string" name="SYSTEM">sc Cu</i>
   <i type="logical" name="LCOMPAT"> F  </i>
  </separator>
  <separator name="electronic" >
   <i type="string" name="PREC">normal</i>
   <i name="ENMAX">    292.00000000</i>
   <i name="ENAUG">    516.45600000</i>
   <i name="EDIFF">      0.00010000</i>
   <i type="int" name="IALGO">    38</i>
   <i type="int" name="IWAVPR">    10</i>
   <i type="int" name="NBANDS">    16</i>
   <i type="int" name="NBANDSLOW">    -1</i>
   <i type="int" name="NBANDSHIGH">    -1</i>
   <i name="NELECT">     22.00000000</i>
   <i type="int" name="TURBO">     0</i>
   <i type="int" name="IRESTART">     0</i>
   <i type="int" name="NREBOOT">     0</i>
   <i type="int" name="NMIN">     0</i>
   <i name="EREF">      0.00000000</i>
   <separator name="electronic smearing" >
    <i type="int" name="ISMEAR">     0</i>
    <i name="SIGMA">      0.05000000</i>
    <i name="KSPACING">      0.50000000</i>
    <i type="logical" name="KGAMMA"> T  </i>
    <i type="logical" name="KBLOWUP"> T  </i>
   </separator>
   <separator name="electronic projectors" >
    <i type="logical" name="LREAL"> F  </i>
    <v name="ROPT">      0.00000000</v>
    <i type="int" name="LMAXPAW">  -100</i>
    <i type="int" name="LMAXMIX">     2</i>
    <i type="logical" name="NLSPLINE"> F  </i>
   </separator>
   <separator name="electronic startup" >
    <i type="int" name="ISTART">     0</i>
    <i type="int" name="ICHARG">     0</i>
    <i type="int" name="INIWAV">     1</i>
   </separator>
   <separator name="electronic spin" >
    <i type="int" name="ISPIN">     1</i>
    <i type="logical" name="LNONCOLLINEAR"> F  </i>
    <v name="MAGMOM">      1.00000000      1.00000000</v>
    <i name="NUPDOWN">     -1.00000000</i>
    <i type="logical" name="LSORBIT"> F  </i>
    <v name="SAXIS">      0.00000000      0.00000000      1.00000000</v>
    <i type="logical" name="LSPIRAL"> F  </i>
    <v name="QSPIRAL">      0.00000000      0.00000000      0.00000000</v>
    <i type="logical" name="LZEROZ"> F  </i>
   </separator>
   <separator name="electronic exchange-correlation" >
    <i type="logical" name="LASPH"> F  </i>
    <i type="logical" name="LMETAGGA"> F  </i>
   </separator>
   <separator name="electronic convergence" >
    <i type="int" name="NELM">    60</i>
    <i type="int" name="NELMDL">    -5</i>
    <i type="int" name="NELMIN">     2</i>
    <i name="ENINI">    292.00000000</i>
    <separator name="electronic convergence detail" >
     <i type="logical" name="LDIAG"> T  </i>
     <i type="logical" name="LSUBROT"> F  </i>
     <i name="WEIMIN">      0.00000000</i>
     <i name="EBREAK">      0.00000156</i>
     <i name="DEPER">      0.30000000</i>
     <i type="int" name="NRMM">     4</i>
     <i name="TIME">      0.40000000</i>
    </separator>
   </separator>
   <separator name="electronic mixer" >
    <i name="AMIX">      0.40000000</i>
    <i name="BMIX">      1.00000000</i>
    <i name="AMIN">      0.10000000</i>
    <i name="AMIX_MAG">      1.60000000</i>
    <i name="BMIX_MAG">      1.00000000</i>
    <separator name="electronic mixer details" >
     <i type="int" name="IMIX">     4</i>
     <i type="logical" name="MIXFIRST"> F  </i>
     <i type="int" name="MAXMIX">   -45</i>
     <i name="WC">    100.00000000</i>
     <i type="int" name="INIMIX">     1</i>
     <i type="int" name="MIXPRE">     1</i>
     <i type="int" name="MREMOVE">     5</i>
    </separator>
   </separator>
   <separator name="electronic dipolcorrection" >
    <i type="logical" name="LDIPOL"> F  </i>
    <i type="logical" name="LMONO"> F  </i>
    <i type="int" name="IDIPOL">     0</i>
    <i name="EPSILON">      1.00000000</i>
    <v name="DIPOL">   -100.00000000   -100.00000000   -100.00000000</v>
    <i name="EFIELD">      0.00000000</i>
   </separator>
  </separator>
  <separator name="grids" >
   <i type="int" name="NGX">    12</i>
   <i type="int" name="NGY">    12</i>
   <i type="int" name="NGZ">    20</i>
   <i type="int" name="NGXF">    24</i>
   <i type="int" name="NGYF">    24</i>
   <i type="int" name="NGZF">    40</i>
   <i type="logical" name="ADDGRID"> F  </i>
  </separator>
  <separator name="ionic" >
   <i type="int" name="NSW">     0</i>
   <i type="int" name="IBRION">    -1</i>
   <i type="int" name="MDALGO">     0</i>
   <i type="int" name="ISIF">     2</i>
   <i name="PSTRESS">      0.00000000</i>
   <i name="EDIFFG">      0.00100000</i>
   <i type="int" name="NFREE">     0</i>
   <i name="POTIM">      0.50000000</i>
   <i name="SMASS">     -3.00000000</i>
   <i name="SCALEE">      1.00000000</i>
  </separator>
  <separator name="ionic md" >
   <i name="TEBEG">      0.00010000</i>
   <i name="TEEND">      0.00010000</i>
   <i type="int" name="NBLOCK">     1</i>
   <i type="int" name="KBLOCK">     1</i>
   <i type="int" name="NPACO">   256</i>
   <i name="APACO">     10.00000000</i>
  </separator>
  <separator name="symmetry" >
   <i type="int" name="ISYM">     2</i>
   <i name="SYMPREC">      0.00001000</i>
  </separator>
  <separator name="dos" >
   <i type="int" name="LORBIT">     0</i>
   <v name="RWIGS">     -1.00000000</v>
   <i type="int" name="NEDOS">   301</i>
   <i name="EMIN">     10.00000000</i>
   <i name="EMAX">    -10.00000000</i>
   <i name="EFERMI">      0.00000000</i>
  </separator>
  <separator name="writing" >
   <i type="int" name="NWRITE">     2</i>
   <i type="logical" name="LWAVE"> T  </i>
   <i type="logical" name="LDOWNSAMPLE"> F  </i>
   <i type="logical" name="LCHARG"> T  </i>
   <i type="logical" name="LPARD"> F  </i>
   <i type="logical" name="LVTOT"> F  </i>
   <i type="logical" name="LVHAR"> F  </i>
   <i type="logical" name="LELF"> F  </i>
   <i type="logical" name="LOPTICS"> F  </i>
   <v name="STM">      0.00000000      0.00000000      0.00000000      0.00000000      0.00000000      0.00000000      0.00000000</v>
  </separator>
  <separator name="performance" >
   <i type="int" name="NPAR">     2</i>
   <i type="int" name="NSIM">     4</i>
   <i type="int" name="NBLK">    -1</i>
   <i type="logical" name="LPLANE"> T  </i>
   <i type="logical" name="LSCALAPACK"> T  </i>
   <i type="logical" name="LSCAAWARE"> F  </i>
   <i type="logical" name="LSCALU"> F  </i>
   <i type="logical" name="LASYNC"> F  </i>
   <i type="logical" name="LORBITALREAL"> F  </i>
  </separator>
  <separator name="miscellaneous" >
   <i type="int" name="IDIOT">     3</i>
   <i type="int" name="PHON_NSTRUCT">    -1</i>
   <i type="logical" name="LMUSIC"> F  </i>
   <v name="POMASS">     63.54600000</v>
   <v name="DARWINR">      0.00000000</v>
   <v name="DARWINV">      1.00000000</v>
   <i type="logical" name="LCORR"> T  </i>
  </separator>
  <i type="logical" name="GGA_COMPAT"> T  </i>
  <i type="logical" name="LBERRY"> F  </i>
  <i type="int" name="ICORELEVEL">     0</i>
  <i type="logical" name="LDAU"> F  </i>
  <i type="int" name="I_CONSTRAINED_M">     0</i>
  <separator name="electronic exchange-correlation" >
   <i type="string" name="GGA">--</i>
   <i type="int" name="VOSKOWN">     0</i>
   <i type="logical" name="LHFCALC"> F  </i>
   <i type="string" name="PRECFOCK"></i>
   <i type="logical" name="LSYMGRAD"> F  </i>
   <i type="logical" name="LHFONE"> F  </i>
   <i type="logical" name="LRHFCALC"> F  </i>
   <i type="logical" name="LTHOMAS"> F  </i>
   <i type="logical" name="LMODELHF"> F  </i>
   <i type="logical" name="LFOCKACE"> F  </i>
   <i name="ENCUT4O">     -1.00000000</i>
   <i type="int" name="EXXOEP">     0</i>
   <i type="int" name="FOURORBIT">     0</i>
   <i name="AEXX">      0.00000000</i>
   <i name="HFALPHA">      0.00000000</i>
   <i name="MCALPHA">      0.00000000</i>
   <i name="ALDAX">      1.00000000</i>
   <i name="AGGAX">      1.00000000</i>
   <i name="ALDAC">      1.00000000</i>
   <i name="AGGAC">      1.00000000</i>
   <i type="int" name="NKREDX">     1</i>
   <i type="int" name="NKREDY">     1</i>
   <i type="int" name="NKREDZ">     1</i>
   <i type="logical" name="SHIFTRED"> F  </i>
   <i type="logical" name="ODDONLY"> F  </i>
   <i type="logical" name="EVENONLY"> F  </i>
   <i type="int" name="LMAXFOCK">     0</i>
   <i type="int" name="NMAXFOCKAE">     0</i>
   <i type="logical" name="LFOCKAEDFT"> F  </i>
   <i name="HFSCREEN">      0.00000000</i>
   <i name="HFSCREENC">      0.00000000</i>
   <i type="int" name="NBANDSGWLOW">     0</i>
  </separator>
  <separator name="vdW DFT" >
   <i type="logical" name="LUSE_VDW"> F  </i>
   <i name="Zab_VDW">     -0.84910000</i>
   <i name="PARAM1">      0.12340000</i>
   <i name="PARAM2">      1.00000000</i>
   <i name="PARAM3">      0.00000000</i>
  </separator>
  <separator name="model GW" >
   <i type="int" name="MODEL_GW">     0</i>
   <i name="MODEL_EPS0">      9.92344550</i>
   <i name="MODEL_ALPHA">      1.00000000</i>
  </separator>
  <separator name="linear response parameters" >
   <i type="logical" name="LEPSILON"> F  </i>
   <i type="logical" name="LRPA"> F  </i>
   <i type="logical" name="LNABLA"> F  </i>
   <i type="logical" name="LVEL"> F  </i>
   <i name="CSHIFT">      0.10000000</i>
   <i name="OMEGAMAX">     -1.00000000</i>
   <i name="DEG_THRESHOLD">      0.00200000</i>
   <i name="RTIME">     -0.10000000</i>
   <i name="WPLASMAI">      0.00000000</i>
   <v name="DFIELD">      0.00000000      0.00000000      0.00000000</v>
   <v name="WPLASMA">      0.00000000      0.00000000      0.00000000      0.00000000      0.00000000      0.00000000      0.00000000      0.00000000      0.00000000</v>
  </separator>
  <separator name="orbital magnetization" >
   <i type="logical" name="NUCIND"> F  </i>
   <v name="MAGPOS">      0.00000000      0.00000000      0.00000000</v>
   <i type="logical" name="LNICSALL"> T  </i>
   <i type="logical" name="ORBITALMAG"> F  </i>
   <i type="logical" name="LMAGBLOCH"> F  </i>
   <i type="logical" name="LCHIMAG"> F  </i>
   <i type="logical" name="LGAUGE"> T  </i>
   <i type="int" name="MAGATOM">     0</i>
   <v name="MAGDIPOL">      0.00000000      0.00000000      0.00000000</v>
   <v name="AVECCONST">      0.00000000      0.00000000      0.00000000</v>
  </separator>
  <separator name="response functions" >
   <i type="logical" name="LFINITE_TEMPERATURE"> F  </i>
   <i type="logical" name="LADDER"> F  </i>
   <i type="logical" name="LRPAFORCE"> F  </i>
   <i type="logical" name="LFXC"> F  </i>
   <i type="logical" name="LHARTREE"> T  </i>
   <i type="int" name="IBSE">     0</i>
   <v type="int" name="KPOINT">    -1     0     0     0</v>
   <i type="logical" name="LTCTC"> F  </i>
   <i type="logical" name="LTCTE"> F  </i>
   <i type="logical" name="LTETE"> F  </i>
   <i type="logical" name="LTRIPLET"> F  </i>
   <i type="logical" name="LFXCEPS"> F  </i>
   <i type="logical" name="LFXHEG"> F  </i>
   <i type="int" name="NATURALO">     2</i>
   <i type="logical" name="LHOLEGF"> F  </i>
   <i type="logical" name="L2ORDER"> F  </i>
   <i type="logical" name="LDMP1"> F  </i>
   <i type="logical" name="LMP2LT"> F  </i>
   <i type="logical" name="LSMP2LT"> F  </i>
   <i type="logical" name="LGWLF"> F  </i>
   <i name="ENCUTGW">     -2.00000000</i>
   <i name="ENCUTGWSOFT">     -2.00000000</i>
   <i name="ENCUTLF">     -1.00000000</i>
   <i type="logical" name="LESF_SPLINES"> F  </i>
   <i type="int" name="LMAXMP2">    -1</i>
   <i name="SCISSOR">      0.00000000</i>
   <i type="int" name="NOMEGA">     0</i>
   <i type="int" name="NOMEGAR">     0</i>
   <i type="int" name="NBANDSGW">    -1</i>
   <i type="int" name="NBANDSO">    -1</i>
   <i type="int" name="NBANDSV">    -1</i>
   <i type="int" name="NELMGW">     1</i>
   <i type="int" name="NELMHF">     1</i>
   <i type="int" name="DIM">     3</i>
   <i type="int" name="IESPILON">     4</i>
   <i type="int" name="ANTIRES">     0</i>
   <i name="OMEGAMAX">    -30.00000000</i>
   <i name="OMEGAMIN">    -30.00000000</i>
   <i name="OMEGATL">   -200.00000000</i>
   <i type="int" name="OMEGAGRID">     0</i>
   <i name="CSHIFT">     -0.10000000</i>
   <i type="logical" name="LSELFENERGY"> F  </i>
   <i type="logical" name="LSPECTRAL"> F  </i>
   <i type="logical" name="LSPECTRALGW"> F  </i>
   <i type="logical" name="LSINGLES"> F  </i>
   <i type="logical" name="LFERMIGW"> F  </i>
   <i type="logical" name="ODDONLYGW"> F  </i>
   <i type="logical" name="EVENONLYGW"> F  </i>
   <i type="int" name="NKREDLFX">     1</i>
   <i type="int" name="NKREDLFY">     1</i>
   <i type="int" name="NKREDLFZ">     1</i>
   <i type="int" name="MAXMEM">  2800</i>
   <i type="int" name="TELESCOPE">     0</i>
   <i type="int" name="NTAUPAR">    -1</i>
   <i type="int" name="NOMEGAPAR">    -1</i>
   <i name="DAMP_NEWTON">      0.80000001</i>
   <i name="LAMBDA">      1.00000000</i>
  </separator>
  <separator name="External order field" >
   <i name="OFIELD_KAPPA">      0.00000000</i>
   <v name="OFIELD_K">      0.00000000      0.00000000      0.00000000</v>
   <i name="OFIELD_Q6_NEAR">      0.00000000</i>
   <i name="OFIELD_Q6_FAR">      0.00000000</i>
   <i name="OFIELD_A">      0.00000000</i>
  </separator>
  <separator name="optional k-points parameters" >
   <i type="int" name="KPOINTS_OPT_MODE">     1</i>
   <i type="logical" name="LKPOINTS_OPT"> F  </i>
  </separator>
 </parameters>
 <atominfo>
  <atoms>       2 </atoms>
  <types>       1 </types>
  <array name="atoms" >
   <dimension dim="1">ion</dimension>
   <field type="string">element</field>
   <field type="int">atomtype</field>
   <set>
    <rc><c>Cu</c><c>   1</c></rc>
    <rc><c>Cu</c><c>   1</c></rc>
   </set>
  </array>
  <array name="atomtypes" >
   <dimension dim="1">type</dimension>
   <field type="int">atomspertype</field>
   <field type="string">element</field>
   <field>mass</field>
   <field>valence</field>
   <field type="string">pseudopotential</field>
   <set>
    <rc><c>   2</c><c>Cu</c><c>     63.54600000</c><c>     11.00000000</c><c> PAW_GGA Cu 05Jan2001                   </c></rc>
   </set>
  </array>
 </atominfo>
 <structure name="initialpos" >
  <crystal>
   <varray name="basis" >
    <v>       2.42480000      -1.40000000       0.00000000 </v>
    <v>       0.00000000       2.80000000       0.00000000 </v>
    <v>       0.00000000       0.00000000       4.87200000 </v>
   </varray>
   <i name="volume">     33.07815168 </i>
   <varray name="rec_basis" >
    <v>       0.41240515       0.00000000       0.00000000 </v>
    <v>       0.20620257       0.35714286       0.00000000 </v>
    <v>       0.00000000       0.00000000       0.20525452 </v>
   </varray>
  </crystal>
  <varray name="positions" >
   <v>       0.00000000       0.00000000       0.00000000 </v>
   <v>       0.66670000       0.33330000       0.50000000 </v>
  </varray>
 </structure>
 <calculation>
  <scstep>
   <time name="dav">    1.20    1.43</time>
   <time name="total">    1.21    1.44</time>
   <energy>
    <i name="alphaZ">    153.82382937 </i>
    <i name="ewald">  -1973.97456234 </i>
    <i name="hartreedc">    -48.61209935 </i>
    <i name="XCdc">     51.79537644 </i>
    <i name="pawpsdc">    531.13222924 </i>
    <i name="pawaedc">   -547.93854603 </i>
    <i name="eentropy">     -0.00019787 </i>
    <i name="bandstr">  -1757.03707182 </i>
    <i name="atom">   2786.07657683 </i>
    <i name="e_fr_energy">   -804.73446553 </i>
    <i name="e_wo_entrp">   -804.73426765 </i>
    <i name="e_0_energy">   -804.73436659 </i>
   </energy>
  </scstep>
  <scstep>
   <time name="dav">    1.15    1.22</time>
   <time name="total">    1.16    1.22</time>
   <energy>
    <i name="e_fr_energy">   -930.41268486 </i>
    <i name="e_wo_entrp">   -930.41188508 </i>
    <i name="e_0_energy">   -930.41228497 </i>
   </energy>
  </scstep>
  <scstep>
   <time name="dav">    1.09    1.19</time>
   <time name="total">    1.10    1.19</time>
   <energy>
    <i name="e_fr_energy">   -933.12788242 </i>
    <i name="e_wo_entrp">   -933.11616498 </i>
    <i name="e_0_energy">   -933.12202370 </i>
   </energy>
  </scstep>
  <scstep>
   <time name="dav">    1.47    1.57</time>
   <time name="total">    1.48    1.57</time>
   <energy>
    <i name="e_fr_energy">   -933.29346820 </i>
    <i name="e_wo_entrp">   -933.28283501 </i>
    <i name="e_0_energy">   -933.28815160 </i>
   </energy>
  </scstep>
  <scstep>
   <time name="dav">    1.00    1.06</time>
   <time name="total">    1.05    1.12</time>
   <energy>
    <i name="e_fr_energy">   -933.29438330 </i>
    <i name="e_wo_entrp">   -933.28374441 </i>
    <i name="e_0_energy">   -933.28906385 </i>
   </energy>
  </scstep>
  <scstep>
   <time name="dav">    1.07    1.18</time>
   <time name="total">    1.12    1.22</time>
   <energy>
    <i name="e_fr_energy">   -195.55364509 </i>
    <i name="e_wo_entrp">   -195.55205598 </i>
    <i name="e_0_energy">   -195.55285053 </i>
   </energy>
  </scstep>
  <scstep>
   <time name="dav">    1.08    1.26</time>
   <time name="total">    1.12    1.30</time>
   <energy>
    <i name="e_fr_energy">    -87.18223636 </i>
    <i name="e_wo_entrp">    -87.17414377 </i>
    <i name="e_0_energy">    -87.17819006 </i>
   </energy>
  </scstep>
  <scstep>
   <time name="dav">    1.00    1.18</time>
   <time name="total">    1.05    1.22</time>
   <energy>
    <i name="e_fr_energy">   -140.32125452 </i>
    <i name="e_wo_entrp">   -140.32080365 </i>
    <i name="e_0_energy">   -140.32102908 </i>
   </energy>
  </scstep>
  <scstep>
   <time name="dav">    1.09    1.40</time>
   <time name="total">    1.13    1.44</time>
   <energy>
    <i name="e_fr_energy">    -33.48837210 </i>
    <i name="e_wo_entrp">    -33.48768852 </i>
    <i name="e_0_energy">    -33.48803031 </i>
   </energy>
  </scstep>
  <scstep>
   <time name="dav">    1.33    1.45</time>
   <time name="total">    1.37    1.49</time>
   <energy>
    <i name="e_fr_energy">    -17.97771734 </i>
    <i name="e_wo_entrp">    -17.97680434 </i>
    <i name="e_0_energy">    -17.97726084 </i>
   </energy>
  </scstep>
  <scstep>
   <time name="dav">    1.18    1.20</time>
   <time name="total">    1.22    1.25</time>
   <energy>
    <i name="e_fr_energy">    -12.83062254 </i>
    <i name="e_wo_entrp">    -12.82978291 </i>
    <i name="e_0_energy">    -12.83020272 </i>
   </energy>
  </scstep>
  <scstep>
   <time name="dav">    1.03    1.08</time>
   <time name="total">    1.08    1.13</time>
   <energy>
    <i name="e_fr_energy">     -7.38780783 </i>
    <i name="e_wo_entrp">     -7.38728889 </i>
    <i name="e_0_energy">     -7.38754836 </i>
   </energy>
  </scstep>
  <scstep>
   <time name="dav">    1.03    1.04</time>
   <time name="total">    1.09    1.09</time>
   <energy>
    <i name="e_fr_energy">     -6.76630332 </i>
    <i name="e_wo_entrp">     -6.76563234 </i>
    <i name="e_0_energy">     -6.76596783 </i>
   </energy>
  </scstep>
  <scstep>
   <time name="dav">    0.95    0.99</time>
   <time name="total">    1.00    1.04</time>
   <energy>
    <i name="e_fr_energy">     -6.76742823 </i>
    <i name="e_wo_entrp">     -6.76674382 </i>
    <i name="e_0_energy">     -6.76708602 </i>
   </energy>
  </scstep>
  <scstep>
   <time name="dav">    0.92    0.96</time>
   <time name="total">    0.96    1.01</time>
   <energy>
    <i name="e_fr_energy">     -6.72941151 </i>
    <i name="e_wo_entrp">     -6.72781847 </i>
    <i name="e_0_energy">     -6.72861499 </i>
   </energy>
  </scstep>
  <scstep>
   <time name="dav">    0.92    0.96</time>
   <time name="total">    0.97    1.00</time>
   <energy>
    <i name="e_fr_energy">     -6.69528860 </i>
    <i name="e_wo_entrp">     -6.69408207 </i>
    <i name="e_0_energy">     -6.69468533 </i>
   </energy>
  </scstep>
  <scstep>
   <time name="dav">    0.87    0.89</time>
   <time name="total">    0.92    0.94</time>
   <energy>
    <i name="e_fr_energy">     -6.69853652 </i>
    <i name="e_wo_entrp">     -6.69699432 </i>
    <i name="e_0_energy">     -6.69776542 </i>
   </energy>
  </scstep>
  <scstep>
   <time name="dav">    1.00    1.04</time>
   <time name="total">    1.05    1.09</time>
   <energy>
    <i name="e_fr_energy">     -6.69359942 </i>
    <i name="e_wo_entrp">     -6.69217282 </i>
    <i name="e_0_energy">     -6.69288612 </i>
   </energy>
  </scstep>
  <scstep>
   <time name="dav">    0.77    0.85</time>
   <time name="total">    0.82    0.90</time>
   <energy>
    <i name="e_fr_energy">     -6.69335141 </i>
    <i name="e_wo_entrp">     -6.69194033 </i>
    <i name="e_0_energy">     -6.69264587 </i>
   </energy>
  </scstep>
  <scstep>
   <time name="dav">    0.96    1.00</time>
   <time name="total">    1.02    1.05</time>
   <energy>
    <i name="e_fr_energy">     -6.69305769 </i>
    <i name="e_wo_entrp">     -6.69171386 </i>
    <i name="e_0_energy">     -6.69238578 </i>
   </energy>
  </scstep>
  <scstep>
   <time name="dav">    0.59    0.60</time>
   <time name="total">    0.60    0.60</time>
   <energy>
    <i name="alphaZ">    153.82382937 </i>
    <i name="ewald">  -1973.97456234 </i>
    <i name="hartreedc">   -748.36788671 </i>
    <i name="XCdc">     84.23660605 </i>
    <i name="pawpsdc">   2135.24473034 </i>
    <i name="pawaedc">  -2424.28605909 </i>
    <i name="eentropy">     -0.00135678 </i>
    <i name="bandstr">    -19.44491300 </i>
    <i name="atom">   2786.07657683 </i>
    <i name="e_fr_energy">     -6.69303532 </i>
    <i name="e_wo_entrp">     -6.69167853 </i>
    <i name="e_0_energy">     -6.69235692 </i>
   </energy>
  </scstep>
  <structure>
   <crystal>
    <varray name="basis" >
     <v>       2.42480000      -1.40000000       0.00000000 </v>
     <v>       0.00000000       2.80000000       0.00000000 </v>
     <v>       0.00000000       0.00000000       4.87200000 </v>
    </varray>
    <i name="volume">     33.07815168 </i>
    <varray name="rec_basis" >
     <v>       0.41240515       0.00000000       0.00000000 </v>
     <v>       0.20620257       0.35714286       0.00000000 </v>
     <v>       0.00000000       0.00000000       0.20525452 </v>
    </varray>
   </crystal>
   <varray name="positions" >
    <v>       0.00000000       0.00000000       0.00000000 </v>
    <v>       0.66670000       0.33330000       0.50000000 </v>
   </varray>
  </structure>
  <varray name="forces" >
   <v>      -0.00002077       0.00003132       0.00000000 </v>
   <v>       0.00002077      -0.00003132      -0.00000000 </v>
  </varray>
  <varray name="stress" >
   <v>    -184.61773241      -0.12563065       0.00000000 </v>
   <v>      -0.12563081    -184.46017226       0.00000000 </v>
   <v>       0.00000000       0.00000000    -206.77776688 </v>
  </varray>
  <energy>
   <i name="e_fr_energy">     -6.69303532 </i>
   <i name="e_wo_entrp">     -6.69167853 </i>
   <i name="e_0_energy">     -6.69235692 </i>
  </energy>
  <time name="totalsc">   23.36   25.21</time>
  <eigenvalues>
   <array>
    <dimension dim="1">band</dimension>
    <dimension dim="2">kpoint</dimension>
    <dimension dim="3">spin</dimension>
    <field>eigene</field>
    <field>occ</field>
    <set>
     <set comment="spin 1">
      <set comment="kpoint 1">
       <r>   -5.7233    1.0000 </r>
       <r>   -2.3503    1.0000 </r>
       <r>   -1.0109    1.0000 </r>
       <r>   -0.8444    1.0000 </r>
       <r>   -0.8443    1.0000 </r>
       <r>   -0.7531    1.0000 </r>
       <r>   -0.7529    1.0000 </r>
       <r>   -0.4527    1.0000 </r>
       <r>   -0.4526    1.0000 </r>
       <r>   -0.1052    1.0000 </r>
       <r>   -0.1050    1.0000 </r>
       <r>    0.8701    1.0000 </r>
       <r>    2.9988    0.0000 </r>
       <r>   19.2236    0.0000 </r>
       <r>   19.6165    0.0000 </r>
       <r>   19.6174    0.0000 </r>
      </set>
      <set comment="kpoint 2">
       <r>   -5.5380    1.0000 </r>
       <r>   -2.2386    1.0000 </r>
       <r>   -1.0122    1.0000 </r>
       <r>   -0.8494    1.0000 </r>
       <r>   -0.7915    1.0000 </r>
       <r>   -0.7791    1.0000 </r>
       <r>   -0.7044    1.0000 </r>
       <r>   -0.5261    1.0000 </r>
       <r>   -0.4790    1.0000 </r>
       <r>   -0.3811    1.0000 </r>
       <r>   -0.0978    1.0000 </r>
       <r>    1.3701    0.1818 </r>
       <r>    3.0595    0.0000 </r>
       <r>   16.9604    0.0000 </r>
       <r>   18.2376    0.0000 </r>
       <r>   19.4225    0.0000 </r>
      </set>
      <set comment="kpoint 3">
       <r>   -4.9919    1.0000 </r>
       <r>   -1.9535    1.0000 </r>
       <r>   -1.0616    1.0000 </r>
       <r>   -0.8930    1.0000 </r>
       <r>   -0.8848    1.0000 </r>
       <r>   -0.7489    1.0000 </r>
       <r>   -0.6440    1.0000 </r>
       <r>   -0.5694    1.0000 </r>
       <r>   -0.5449    1.0000 </r>
       <r>   -0.5278    1.0000 </r>
       <r>   -0.0843    1.0000 </r>
       <r>    2.3404    0.0000 </r>
       <r>    3.2708    0.0000 </r>
       <r>   13.4486    0.0000 </r>
       <r>   16.4920    0.0000 </r>
       <r>   18.8379    0.0000 </r>
      </set>
      <set comment="kpoint 4">
       <r>   -4.1255    1.0000 </r>
       <r>   -1.6866    1.0000 </r>
       <r>   -1.2205    1.0000 </r>
       <r>   -1.0824    1.0000 </r>
       <r>   -0.9594    1.0000 </r>
       <r>   -0.6404    1.0000 </r>
       <r>   -0.6262    1.0000 </r>
       <r>   -0.5594    1.0000 </r>
       <r>   -0.4333    1.0000 </r>
       <r>   -0.3778    1.0000 </r>
       <r>   -0.0744    1.0000 </r>
       <r>    3.5548    0.0000 </r>
       <r>    3.7200    0.0000 </r>
       <r>   10.1584    0.0000 </r>
       <r>   15.0036    0.0000 </r>
       <r>   16.2203    0.0000 </r>
      </set>
      <set comment="kpoint 5">
       <r>   -3.0725    1.0000 </r>
       <r>   -1.6670    1.0000 </r>
       <r>   -1.4392    1.0000 </r>
       <r>   -1.0258    1.0000 </r>
       <r>   -0.8660    1.0000 </r>
       <r>   -0.7496    1.0000 </r>
       <r>   -0.7011    1.0000 </r>
       <r>   -0.2188    1.0000 </r>
       <r>   -0.2122    1.0000 </r>
       <r>   -0.1756    1.0000 </r>
       <r>   -0.0704    1.0000 </r>
       <r>    4.4933    0.0000 </r>
       <r>    4.9819    0.0000 </r>
       <r>    7.2280    0.0000 </r>
       <r>   13.1970    0.0000 </r>
       <r>   13.8636    0.0000 </r>
      </set>
      <set comment="kpoint 6">
       <r>   -2.2471    1.0000 </r>
       <r>   -1.7551    1.0000 </r>
       <r>   -1.5605    1.0000 </r>
       <r>   -0.8593    1.0000 </r>
       <r>   -0.8295    1.0000 </r>
       <r>   -0.7528    1.0000 </r>
       <r>   -0.7046    1.0000 </r>
       <r>   -0.0700    1.0000 </r>
       <r>   -0.0486    1.0000 </r>
       <r>   -0.0146    1.0000 </r>
       <r>    0.4868    1.0000 </r>
       <r>    4.2355    0.0000 </r>
       <r>    6.1576    0.0000 </r>
       <r>    6.5627    0.0000 </r>
       <r>   10.5352    0.0000 </r>
       <r>   11.4142    0.0000 </r>
      </set>
      <set comment="kpoint 7">
       <r>   -1.9969    1.0000 </r>
       <r>   -1.8165    1.0000 </r>
       <r>   -1.5988    1.0000 </r>
       <r>   -0.8588    1.0000 </r>
       <r>   -0.7710    1.0000 </r>
       <r>   -0.7440    1.0000 </r>
       <r>   -0.6316    1.0000 </r>
       <r>   -0.0701    1.0000 </r>
       <r>    0.0111    1.0000 </r>
       <r>    0.0493    1.0000 </r>
       <r>    1.6146    0.0000 </r>
       <r>    2.5562    0.0000 </r>
       <r>    7.2680    0.0000 </r>
       <r>    7.6748    0.0000 </r>
       <r>    8.8510    0.0000 </r>
       <r>   10.0303    0.0000 </r>
      </set>
      <set comment="kpoint 8">
       <r>   -5.5380    1.0000 </r>
       <r>   -2.2386    1.0000 </r>
       <r>   -1.0122    1.0000 </r>
       <r>   -0.8495    1.0000 </r>
       <r>   -0.7914    1.0000 </r>
       <r>   -0.7792    1.0000 </r>
       <r>   -0.7044    1.0000 </r>
       <r>   -0.5261    1.0000 </r>
       <r>   -0.4790    1.0000 </r>
       <r>   -0.3811    1.0000 </r>
       <r>   -0.0977    1.0000 </r>
       <r>    1.3701    0.1819 </r>
       <r>    3.0595    0.0000 </r>
       <r>   16.9594    0.0000 </r>
       <r>   18.2383    0.0000 </r>
       <r>   19.4225    0.0000 </r>
      </set>
      <set comment="kpoint 9">
       <r>   -5.5380    1.0000 </r>
       <r>   -2.2386    1.0000 </r>
       <r>   -1.0122    1.0000 </r>
       <r>   -0.8494    1.0000 </r>
       <r>   -0.7915    1.0000 </r>
       <r>   -0.7790    1.0000 </r>
       <r>   -0.7045    1.0000 </r>
       <r>   -0.5261    1.0000 </r>
       <r>   -0.4789    1.0000 </r>
       <r>   -0.3811    1.0000 </r>
       <r>   -0.0979    1.0000 </r>
       <r>    1.3701    0.1817 </r>
       <r>    3.0595    0.0000 </r>
       <r>   16.9595    0.0000 </r>
       <r>   18.2381    0.0000 </r>
       <r>   19.4225    0.0000 </r>
      </set>
      <set comment="kpoint 10">
       <r>   -5.1720    1.0000 </r>
       <r>   -2.0373    1.0000 </r>
       <r>   -1.0489    1.0000 </r>
       <r>   -0.8319    1.0000 </r>
       <r>   -0.8247    1.0000 </r>
       <r>   -0.7787    1.0000 </r>
       <r>   -0.6846    1.0000 </r>
       <r>   -0.6015    1.0000 </r>
       <r>   -0.5751    1.0000 </r>
       <r>   -0.4537    1.0000 </r>
       <r>   -0.0931    1.0000 </r>
       <r>    2.0548    0.0000 </r>
       <r>    3.1960    0.0000 </r>
       <r>   15.1619    0.0000 </r>
       <r>   15.3796    0.0000 </r>
       <r>   19.7174    0.0000 </r>
      </set>
      <set comment="kpoint 11">
       <r>   -5.1720    1.0000 </r>
       <r>   -2.0373    1.0000 </r>
       <r>   -1.0488    1.0000 </r>
       <r>   -0.8317    1.0000 </r>
       <r>   -0.8246    1.0000 </r>
       <r>   -0.7786    1.0000 </r>
       <r>   -0.6848    1.0000 </r>
       <r>   -0.6017    1.0000 </r>
       <r>   -0.5752    1.0000 </r>
       <r>   -0.4536    1.0000 </r>
       <r>   -0.0932    1.0000 </r>
       <r>    2.0549    0.0000 </r>
       <r>    3.1960    0.0000 </r>
       <r>   15.1618    0.0000 </r>
       <r>   15.3797    0.0000 </r>
       <r>   19.7173    0.0000 </r>
      </set>
      <set comment="kpoint 12">
       <r>   -4.4625    1.0000 </r>
       <r>   -1.7346    1.0000 </r>
       <r>   -1.1312    1.0000 </r>
       <r>   -1.1039    1.0000 </r>
       <r>   -0.9153    1.0000 </r>
       <r>   -0.7132    1.0000 </r>
       <r>   -0.6789    1.0000 </r>
       <r>   -0.5214    1.0000 </r>
       <r>   -0.4910    1.0000 </r>
       <r>   -0.4086    1.0000 </r>
       <r>   -0.0901    1.0000 </r>
       <r>    3.1025    0.0000 </r>
       <r>    3.5315    0.0000 </r>
       <r>   11.8680    0.0000 </r>
       <r>   13.8220    0.0000 </r>
       <r>   17.9326    0.0000 </r>
      </set>
      <set comment="kpoint 13">
       <r>   -4.4625    1.0000 </r>
       <r>   -1.7346    1.0000 </r>
       <r>   -1.1311    1.0000 </r>
       <r>   -1.1039    1.0000 </r>
       <r>   -0.9152    1.0000 </r>
       <r>   -0.7131    1.0000 </r>
       <r>   -0.6790    1.0000 </r>
       <r>   -0.5213    1.0000 </r>
       <r>   -0.4911    1.0000 </r>
       <r>   -0.4087    1.0000 </r>
       <r>   -0.0901    1.0000 </r>
       <r>    3.1026    0.0000 </r>
       <r>    3.5315    0.0000 </r>
       <r>   11.8680    0.0000 </r>
       <r>   13.8220    0.0000 </r>
       <r>   17.9326    0.0000 </r>
      </set>
      <set comment="kpoint 14">
       <r>   -3.4831    1.0000 </r>
       <r>   -1.5864    1.0000 </r>
       <r>   -1.3480    1.0000 </r>
       <r>   -1.1196    1.0000 </r>
       <r>   -0.9367    1.0000 </r>
       <r>   -0.7707    1.0000 </r>
       <r>   -0.6190    1.0000 </r>
       <r>   -0.5109    1.0000 </r>
       <r>   -0.2681    1.0000 </r>
       <r>   -0.1465    1.0000 </r>
       <r>   -0.0896    1.0000 </r>
       <r>    4.1739    0.0000 </r>
       <r>    4.4040    0.0000 </r>
       <r>    8.7433    0.0000 </r>
       <r>   12.6510    0.0000 </r>
       <r>   14.7925    0.0000 </r>
      </set>
      <set comment="kpoint 15">
       <r>   -3.4831    1.0000 </r>
       <r>   -1.5864    1.0000 </r>
       <r>   -1.3480    1.0000 </r>
       <r>   -1.1195    1.0000 </r>
       <r>   -0.9366    1.0000 </r>
       <r>   -0.7707    1.0000 </r>
       <r>   -0.6190    1.0000 </r>
       <r>   -0.5108    1.0000 </r>
       <r>   -0.2683    1.0000 </r>
       <r>   -0.1467    1.0000 </r>
       <r>   -0.0896    1.0000 </r>
       <r>    4.1740    0.0000 </r>
       <r>    4.4040    0.0000 </r>
       <r>    8.7432    0.0000 </r>
       <r>   12.6511    0.0000 </r>
       <r>   14.7924    0.0000 </r>
      </set>
      <set comment="kpoint 16">
       <r>   -2.4873    1.0000 </r>
       <r>   -1.6549    1.0000 </r>
       <r>   -1.4996    1.0000 </r>
       <r>   -1.0080    1.0000 </r>
       <r>   -0.8339    1.0000 </r>
       <r>   -0.8072    1.0000 </r>
       <r>   -0.7177    1.0000 </r>
       <r>   -0.2426    1.0000 </r>
       <r>   -0.0914    1.0000 </r>
       <r>   -0.0890    1.0000 </r>
       <r>    0.2756    1.0000 </r>
       <r>    4.9947    0.0000 </r>
       <r>    5.9153    0.0000 </r>
       <r>    6.2074    0.0000 </r>
       <r>   11.7973    0.0000 </r>
       <r>   11.9584    0.0000 </r>
      </set>
      <set comment="kpoint 17">
       <r>   -2.4873    1.0000 </r>
       <r>   -1.6549    1.0000 </r>
       <r>   -1.4996    1.0000 </r>
       <r>   -1.0079    1.0000 </r>
       <r>   -0.8339    1.0000 </r>
       <r>   -0.8072    1.0000 </r>
       <r>   -0.7177    1.0000 </r>
       <r>   -0.2425    1.0000 </r>
       <r>   -0.0914    1.0000 </r>
       <r>   -0.0891    1.0000 </r>
       <r>    0.2755    1.0000 </r>
       <r>    4.9948    0.0000 </r>
       <r>    5.9153    0.0000 </r>
       <r>    6.2073    0.0000 </r>
       <r>   11.7973    0.0000 </r>
       <r>   11.9584    0.0000 </r>
      </set>
      <set comment="kpoint 18">
       <r>   -1.9781    1.0000 </r>
       <r>   -1.7411    1.0000 </r>
       <r>   -1.5701    1.0000 </r>
       <r>   -0.8589    1.0000 </r>
       <r>   -0.7902    1.0000 </r>
       <r>   -0.7855    1.0000 </r>
       <r>   -0.7188    1.0000 </r>
       <r>   -0.0933    1.0000 </r>
       <r>   -0.0506    1.0000 </r>
       <r>   -0.0064    1.0000 </r>
       <r>    1.2990    0.8651 </r>
       <r>    3.3523    0.0000 </r>
       <r>    6.9569    0.0000 </r>
       <r>    7.4630    0.0000 </r>
       <r>    9.5442    0.0000 </r>
       <r>   10.5687    0.0000 </r>
      </set>
      <set comment="kpoint 19">
       <r>   -1.9782    1.0000 </r>
       <r>   -1.7411    1.0000 </r>
       <r>   -1.5701    1.0000 </r>
       <r>   -0.8589    1.0000 </r>
       <r>   -0.7902    1.0000 </r>
       <r>   -0.7855    1.0000 </r>
       <r>   -0.7187    1.0000 </r>
       <r>   -0.0933    1.0000 </r>
       <r>   -0.0505    1.0000 </r>
       <r>   -0.0065    1.0000 </r>
       <r>    1.2989    0.8654 </r>
       <r>    3.3523    0.0000 </r>
       <r>    6.9569    0.0000 </r>
       <r>    7.4630    0.0000 </r>
       <r>    9.5442    0.0000 </r>
       <r>   10.5686    0.0000 </r>
      </set>
      <set comment="kpoint 20">
       <r>   -4.9920    1.0000 </r>
       <r>   -1.9535    1.0000 </r>
       <r>   -1.0617    1.0000 </r>
       <r>   -0.8929    1.0000 </r>
       <r>   -0.8849    1.0000 </r>
       <r>   -0.7489    1.0000 </r>
       <r>   -0.6440    1.0000 </r>
       <r>   -0.5693    1.0000 </r>
       <r>   -0.5448    1.0000 </r>
       <r>   -0.5278    1.0000 </r>
       <r>   -0.0842    1.0000 </r>
       <r>    2.3404    0.0000 </r>
       <r>    3.2708    0.0000 </r>
       <r>   13.4478    0.0000 </r>
       <r>   16.4927    0.0000 </r>
       <r>   18.8385    0.0000 </r>
      </set>
      <set comment="kpoint 21">
       <r>   -4.9920    1.0000 </r>
       <r>   -1.9535    1.0000 </r>
       <r>   -1.0616    1.0000 </r>
       <r>   -0.8929    1.0000 </r>
       <r>   -0.8848    1.0000 </r>
       <r>   -0.7488    1.0000 </r>
       <r>   -0.6441    1.0000 </r>
       <r>   -0.5695    1.0000 </r>
       <r>   -0.5448    1.0000 </r>
       <r>   -0.5279    1.0000 </r>
       <r>   -0.0843    1.0000 </r>
       <r>    2.3405    0.0000 </r>
       <r>    3.2708    0.0000 </r>
       <r>   13.4478    0.0000 </r>
       <r>   16.4925    0.0000 </r>
       <r>   18.8388    0.0000 </r>
      </set>
      <set comment="kpoint 22">
       <r>   -4.4625    1.0000 </r>
       <r>   -1.7346    1.0000 </r>
       <r>   -1.1312    1.0000 </r>
       <r>   -1.1039    1.0000 </r>
       <r>   -0.9154    1.0000 </r>
       <r>   -0.7132    1.0000 </r>
       <r>   -0.6789    1.0000 </r>
       <r>   -0.5214    1.0000 </r>
       <r>   -0.4909    1.0000 </r>
       <r>   -0.4086    1.0000 </r>
       <r>   -0.0901    1.0000 </r>
       <r>    3.1025    0.0000 </r>
       <r>    3.5315    0.0000 </r>
       <r>   11.8672    0.0000 </r>
       <r>   13.8229    0.0000 </r>
       <r>   17.9318    0.0000 </r>
      </set>
      <set comment="kpoint 23">
       <r>   -4.4625    1.0000 </r>
       <r>   -1.7346    1.0000 </r>
       <r>   -1.1311    1.0000 </r>
       <r>   -1.1038    1.0000 </r>
       <r>   -0.9152    1.0000 </r>
       <r>   -0.7132    1.0000 </r>
       <r>   -0.6790    1.0000 </r>
       <r>   -0.5214    1.0000 </r>
       <r>   -0.4911    1.0000 </r>
       <r>   -0.4087    1.0000 </r>
       <r>   -0.0902    1.0000 </r>
       <r>    3.1026    0.0000 </r>
       <r>    3.5315    0.0000 </r>
       <r>   11.8673    0.0000 </r>
       <r>   13.8228    0.0000 </r>
       <r>   17.9319    0.0000 </r>
      </set>
      <set comment="kpoint 24">
       <r>   -3.6282    1.0000 </r>
       <r>   -1.4867    1.0000 </r>
       <r>   -1.2978    1.0000 </r>
       <r>   -1.2496    1.0000 </r>
       <r>   -0.9265    1.0000 </r>
       <r>   -0.8015    1.0000 </r>
       <r>   -0.6430    1.0000 </r>
       <r>   -0.5691    1.0000 </r>
       <r>   -0.2738    1.0000 </r>
       <r>   -0.1304    1.0000 </r>
       <r>   -0.1100    1.0000 </r>
       <r>    4.0766    0.0000 </r>
       <r>    4.2083    0.0000 </r>
       <r>   10.4252    0.0000 </r>
       <r>   10.7743    0.0000 </r>
       <r>   16.6799    0.0000 </r>
      </set>
      <set comment="kpoint 25">
       <r>   -3.6282    1.0000 </r>
       <r>   -1.4866    1.0000 </r>
       <r>   -1.2978    1.0000 </r>
       <r>   -1.2495    1.0000 </r>
       <r>   -0.9264    1.0000 </r>
       <r>   -0.8016    1.0000 </r>
       <r>   -0.6429    1.0000 </r>
       <r>   -0.5691    1.0000 </r>
       <r>   -0.2740    1.0000 </r>
       <r>   -0.1305    1.0000 </r>
       <r>   -0.1101    1.0000 </r>
       <r>    4.0767    0.0000 </r>
       <r>    4.2084    0.0000 </r>
       <r>   10.4250    0.0000 </r>
       <r>   10.7745    0.0000 </r>
       <r>   16.6800    0.0000 </r>
      </set>
      <set comment="kpoint 26">
       <r>   -2.6343    1.0000 </r>
       <r>   -1.4650    1.0000 </r>
       <r>   -1.4318    1.0000 </r>
       <r>   -1.2314    1.0000 </r>
       <r>   -0.8808    1.0000 </r>
       <r>   -0.8611    1.0000 </r>
       <r>   -0.6652    1.0000 </r>
       <r>   -0.4884    1.0000 </r>
       <r>   -0.1293    1.0000 </r>
       <r>   -0.0977    1.0000 </r>
       <r>    0.2903    1.0000 </r>
       <r>    4.9980    0.0000 </r>
       <r>    5.5855    0.0000 </r>
       <r>    7.6491    0.0000 </r>
       <r>    9.6599    0.0000 </r>
       <r>   13.6831    0.0000 </r>
      </set>
      <set comment="kpoint 27">
       <r>   -2.6344    1.0000 </r>
       <r>   -1.4650    1.0000 </r>
       <r>   -1.4317    1.0000 </r>
       <r>   -1.2312    1.0000 </r>
       <r>   -0.8809    1.0000 </r>
       <r>   -0.8610    1.0000 </r>
       <r>   -0.6652    1.0000 </r>
       <r>   -0.4883    1.0000 </r>
       <r>   -0.1293    1.0000 </r>
       <r>   -0.0980    1.0000 </r>
       <r>    0.2901    1.0000 </r>
       <r>    4.9981    0.0000 </r>
       <r>    5.5856    0.0000 </r>
       <r>    7.6490    0.0000 </r>
       <r>    9.6600    0.0000 </r>
       <r>   13.6831    0.0000 </r>
      </set>
      <set comment="kpoint 28">
       <r>   -1.9080    1.0000 </r>
       <r>   -1.5643    1.0000 </r>
       <r>   -1.5038    1.0000 </r>
       <r>   -1.0662    1.0000 </r>
       <r>   -0.9031    1.0000 </r>
       <r>   -0.7750    1.0000 </r>
       <r>   -0.7495    1.0000 </r>
       <r>   -0.2774    1.0000 </r>
       <r>   -0.1424    1.0000 </r>
       <r>   -0.0319    1.0000 </r>
       <r>    1.1059    1.0000 </r>
       <r>    4.8315    0.0000 </r>
       <r>    6.6129    0.0000 </r>
       <r>    7.1627    0.0000 </r>
       <r>    9.0504    0.0000 </r>
       <r>   11.0203    0.0000 </r>
      </set>
      <set comment="kpoint 29">
       <r>   -1.9080    1.0000 </r>
       <r>   -1.5643    1.0000 </r>
       <r>   -1.5038    1.0000 </r>
       <r>   -1.0661    1.0000 </r>
       <r>   -0.9031    1.0000 </r>
       <r>   -0.7750    1.0000 </r>
       <r>   -0.7494    1.0000 </r>
       <r>   -0.2773    1.0000 </r>
       <r>   -0.1424    1.0000 </r>
       <r>   -0.0321    1.0000 </r>
       <r>    1.1058    1.0000 </r>
       <r>    4.8315    0.0000 </r>
       <r>    6.6129    0.0000 </r>
       <r>    7.1627    0.0000 </r>
       <r>    9.0505    0.0000 </r>
       <r>   11.0202    0.0000 </r>
      </set>
      <set comment="kpoint 30">
       <r>   -1.7291    1.0000 </r>
       <r>   -1.6107    1.0000 </r>
       <r>   -1.5259    1.0000 </r>
       <r>   -0.9286    1.0000 </r>
       <r>   -0.8699    1.0000 </r>
       <r>   -0.8574    1.0000 </r>
       <r>   -0.7067    1.0000 </r>
       <r>   -0.1471    1.0000 </r>
       <r>   -0.1331    1.0000 </r>
       <r>   -0.0651    1.0000 </r>
       <r>    2.4104    0.0000 </r>
       <r>    2.9710    0.0000 </r>
       <r>    7.9024    0.0000 </r>
       <r>    8.3399    0.0000 </r>
       <r>    8.8413    0.0000 </r>
       <r>    9.2429    0.0000 </r>
      </set>
      <set comment="kpoint 31">
       <r>   -5.1721    1.0000 </r>
       <r>   -2.0373    1.0000 </r>
       <r>   -1.0489    1.0000 </r>
       <r>   -0.8318    1.0000 </r>
       <r>   -0.8247    1.0000 </r>
       <r>   -0.7786    1.0000 </r>
       <r>   -0.6847    1.0000 </r>
       <r>   -0.6016    1.0000 </r>
       <r>   -0.5752    1.0000 </r>
       <r>   -0.4536    1.0000 </r>
       <r>   -0.0932    1.0000 </r>
       <r>    2.0548    0.0000 </r>
       <r>    3.1960    0.0000 </r>
       <r>   15.1615    0.0000 </r>
       <r>   15.3794    0.0000 </r>
       <r>   19.7173    0.0000 </r>
      </set>
      <set comment="kpoint 32">
       <r>   -4.1256    1.0000 </r>
       <r>   -1.6867    1.0000 </r>
       <r>   -1.2205    1.0000 </r>
       <r>   -1.0824    1.0000 </r>
       <r>   -0.9594    1.0000 </r>
       <r>   -0.6404    1.0000 </r>
       <r>   -0.6261    1.0000 </r>
       <r>   -0.5594    1.0000 </r>
       <r>   -0.4332    1.0000 </r>
       <r>   -0.3777    1.0000 </r>
       <r>   -0.0744    1.0000 </r>
       <r>    3.5547    0.0000 </r>
       <r>    3.7200    0.0000 </r>
       <r>   10.1577    0.0000 </r>
       <r>   15.0043    0.0000 </r>
       <r>   16.2196    0.0000 </r>
      </set>
      <set comment="kpoint 33">
       <r>   -4.1256    1.0000 </r>
       <r>   -1.6865    1.0000 </r>
       <r>   -1.2204    1.0000 </r>
       <r>   -1.0824    1.0000 </r>
       <r>   -0.9593    1.0000 </r>
       <r>   -0.6405    1.0000 </r>
       <r>   -0.6261    1.0000 </r>
       <r>   -0.5594    1.0000 </r>
       <r>   -0.4333    1.0000 </r>
       <r>   -0.3779    1.0000 </r>
       <r>   -0.0745    1.0000 </r>
       <r>    3.5548    0.0000 </r>
       <r>    3.7200    0.0000 </r>
       <r>   10.1578    0.0000 </r>
       <r>   15.0041    0.0000 </r>
       <r>   16.2197    0.0000 </r>
      </set>
      <set comment="kpoint 34">
       <r>   -3.4831    1.0000 </r>
       <r>   -1.5865    1.0000 </r>
       <r>   -1.3480    1.0000 </r>
       <r>   -1.1196    1.0000 </r>
       <r>   -0.9367    1.0000 </r>
       <r>   -0.7707    1.0000 </r>
       <r>   -0.6190    1.0000 </r>
[...]
       <r>    2.3000    0.0000 </r>
       <r>    4.7631    0.0000 </r>
       <r>    4.7631    0.0000 </r>
       <r>   14.6805    0.0000 </r>
       <r>   14.6805    0.0000 </r>
      </set>
      <set comment="kpoint 365">
       <r>   -1.9836    1.0000 </r>
       <r>   -1.9836    1.0000 </r>
       <r>   -1.3857    1.0000 </r>
       <r>   -1.3857    1.0000 </r>
       <r>   -0.4440    1.0000 </r>
       <r>   -0.4440    1.0000 </r>
       <r>   -0.1711    1.0000 </r>
       <r>   -0.1711    1.0000 </r>
       <r>    0.0324    1.0000 </r>
       <r>    0.0324    1.0000 </r>
       <r>    2.2998    0.0000 </r>
       <r>    2.2998    0.0000 </r>
       <r>    4.7634    0.0000 </r>
       <r>    4.7634    0.0000 </r>
       <r>   14.6802    0.0000 </r>
       <r>   14.6802    0.0000 </r>
      </set>
      <set comment="kpoint 366">
       <r>   -1.9222    1.0000 </r>
       <r>   -1.9222    1.0000 </r>
       <r>   -1.3517    1.0000 </r>
       <r>   -1.3517    1.0000 </r>
       <r>   -0.5238    1.0000 </r>
       <r>   -0.5238    1.0000 </r>
       <r>   -0.2293    1.0000 </r>
       <r>   -0.2293    1.0000 </r>
       <r>   -0.0424    1.0000 </r>
       <r>   -0.0424    1.0000 </r>
       <r>    2.2192    0.0000 </r>
       <r>    2.2192    0.0000 </r>
       <r>    5.3090    0.0000 </r>
       <r>    5.3090    0.0000 </r>
       <r>   13.1361    0.0000 </r>
       <r>   13.1361    0.0000 </r>
      </set>
      <set comment="kpoint 367">
       <r>   -1.9223    1.0000 </r>
       <r>   -1.9223    1.0000 </r>
       <r>   -1.3516    1.0000 </r>
       <r>   -1.3516    1.0000 </r>
       <r>   -0.5238    1.0000 </r>
       <r>   -0.5238    1.0000 </r>
       <r>   -0.2294    1.0000 </r>
       <r>   -0.2294    1.0000 </r>
       <r>   -0.0424    1.0000 </r>
       <r>   -0.0424    1.0000 </r>
       <r>    2.2190    0.0000 </r>
       <r>    2.2190    0.0000 </r>
       <r>    5.3093    0.0000 </r>
       <r>    5.3093    0.0000 </r>
       <r>   13.1359    0.0000 </r>
       <r>   13.1359    0.0000 </r>
      </set>
      <set comment="kpoint 368">
       <r>   -1.7617    1.0000 </r>
       <r>   -1.7617    1.0000 </r>
       <r>   -1.2652    1.0000 </r>
       <r>   -1.2652    1.0000 </r>
       <r>   -0.7447    1.0000 </r>
       <r>   -0.7447    1.0000 </r>
       <r>   -0.4631    1.0000 </r>
       <r>   -0.4631    1.0000 </r>
       <r>   -0.0499    1.0000 </r>
       <r>   -0.0499    1.0000 </r>
       <r>    2.1239    0.0000 </r>
       <r>    2.1239    0.0000 </r>
       <r>    6.6565    0.0000 </r>
       <r>    6.6565    0.0000 </r>
       <r>   10.7144    0.0000 </r>
       <r>   10.7144    0.0000 </r>
      </set>
      <set comment="kpoint 369">
       <r>   -1.7618    1.0000 </r>
       <r>   -1.7618    1.0000 </r>
       <r>   -1.2651    1.0000 </r>
       <r>   -1.2651    1.0000 </r>
       <r>   -0.7448    1.0000 </r>
       <r>   -0.7448    1.0000 </r>
       <r>   -0.4632    1.0000 </r>
       <r>   -0.4632    1.0000 </r>
       <r>   -0.0499    1.0000 </r>
       <r>   -0.0499    1.0000 </r>
       <r>    2.1238    0.0000 </r>
       <r>    2.1238    0.0000 </r>
       <r>    6.6567    0.0000 </r>
       <r>    6.6567    0.0000 </r>
       <r>   10.7143    0.0000 </r>
       <r>   10.7143    0.0000 </r>
      </set>
      <set comment="kpoint 370">
       <r>   -1.6422    1.0000 </r>
       <r>   -1.6422    1.0000 </r>
       <r>   -1.1875    1.0000 </r>
       <r>   -1.1875    1.0000 </r>
       <r>   -0.9462    1.0000 </r>
       <r>   -0.9462    1.0000 </r>
       <r>   -0.5644    1.0000 </r>
       <r>   -0.5644    1.0000 </r>
       <r>   -0.0425    1.0000 </r>
       <r>   -0.0425    1.0000 </r>
       <r>    2.0937    0.0000 </r>
       <r>    2.0937    0.0000 </r>
       <r>    8.3658    0.0000 </r>
       <r>    8.3658    0.0000 </r>
       <r>    8.6474    0.0000 </r>
       <r>    8.6474    0.0000 </r>
      </set>
     </set>
    </set>
   </array>
  </eigenvalues>
  <separator name="orbital magnetization" >
   <v name="MAGDIPOLOUT">      0.00000000      0.00000000      0.00000000</v>
  </separator>
  <dos>
   <i name="efermi">      1.33796948 </i>
   <total>
    <array>
     <dimension dim="1">gridpoints</dimension>
     <dimension dim="2">spin</dimension>
     <field>energy</field>
     <field>total</field>
     <field>integrated</field>
     <set>
      <set comment="spin 1">
       <r>    -7.0578     0.0000     0.0000 </r>
       <r>    -6.9599     0.0000     0.0000 </r>
       <r>    -6.8620     0.0000     0.0000 </r>
       <r>    -6.7642     0.0000     0.0000 </r>
       <r>    -6.6663     0.0000     0.0000 </r>
       <r>    -6.5684     0.0000     0.0000 </r>
       <r>    -6.4706     0.0000     0.0000 </r>
       <r>    -6.3727     0.0000     0.0000 </r>
       <r>    -6.2749     0.0000     0.0000 </r>
       <r>    -6.1770     0.0000     0.0000 </r>
       <r>    -6.0791     0.0000     0.0000 </r>
       <r>    -5.9813     0.0000     0.0000 </r>
       <r>    -5.8834     0.0000     0.0000 </r>
       <r>    -5.7855     0.0007     0.0001 </r>
       <r>    -5.6877     0.0153     0.0016 </r>
       <r>    -5.5898     0.0382     0.0053 </r>
       <r>    -5.4919     0.1077     0.0158 </r>
       <r>    -5.3941     0.1868     0.0341 </r>
       <r>    -5.2962     0.0499     0.0390 </r>
       <r>    -5.1983     0.0419     0.0431 </r>
       <r>    -5.1005     0.2959     0.0721 </r>
       <r>    -5.0026     0.2394     0.0955 </r>
       <r>    -4.9047     0.1494     0.1101 </r>
       <r>    -4.8069     0.1991     0.1296 </r>
       <r>    -4.7090     0.1866     0.1479 </r>
       <r>    -4.6112     0.2584     0.1732 </r>
       <r>    -4.5133     0.1788     0.1907 </r>
       <r>    -4.4154     0.2154     0.2117 </r>
       <r>    -4.3176     0.4350     0.2543 </r>
       <r>    -4.2197     0.1889     0.2728 </r>
       <r>    -4.1218     0.2738     0.2996 </r>
       <r>    -4.0240     0.6758     0.3657 </r>
       <r>    -3.9261     0.2511     0.3903 </r>
       <r>    -3.8282     0.0106     0.3913 </r>
       <r>    -3.7304     0.1794     0.4089 </r>
       <r>    -3.6325     0.4796     0.4558 </r>
       <r>    -3.5346     0.4794     0.5028 </r>
       <r>    -3.4368     0.5117     0.5528 </r>
       <r>    -3.3389     0.5143     0.6032 </r>
       <r>    -3.2411     0.4835     0.6505 </r>
       <r>    -3.1432     0.3487     0.6846 </r>
       <r>    -3.0453     0.4956     0.7331 </r>
       <r>    -2.9475     0.5372     0.7857 </r>
       <r>    -2.8496     0.3875     0.8236 </r>
       <r>    -2.7517     0.8999     0.9117 </r>
       <r>    -2.6539     0.2491     0.9361 </r>
       <r>    -2.5560     0.5951     0.9943 </r>
       <r>    -2.4581     0.8579     1.0783 </r>
       <r>    -2.3603     1.7167     1.2463 </r>
       <r>    -2.2624     1.1334     1.3572 </r>
       <r>    -2.1645     1.4280     1.4969 </r>
       <r>    -2.0667     0.9439     1.5893 </r>
       <r>    -1.9688     3.0949     1.8922 </r>
       <r>    -1.8709     3.3079     2.2159 </r>
       <r>    -1.7731     3.5852     2.5668 </r>
       <r>    -1.6752     4.4884     3.0060 </r>
       <r>    -1.5774     4.0816     3.4055 </r>
       <r>    -1.4795     5.4727     3.9410 </r>
       <r>    -1.3816     7.8831     4.7125 </r>
       <r>    -1.2838     8.9410     5.5875 </r>
       <r>    -1.1859     9.0070     6.4690 </r>
       <r>    -1.0880     8.8676     7.3368 </r>
       <r>    -0.9902     7.9567     8.1155 </r>
       <r>    -0.8923    11.6289     9.2536 </r>
       <r>    -0.7944    12.6889    10.4954 </r>
       <r>    -0.6966    11.7975    11.6499 </r>
       <r>    -0.5987    12.6572    12.8886 </r>
       <r>    -0.5008    11.6335    14.0271 </r>
       <r>    -0.4030    11.1558    15.1189 </r>
       <r>    -0.3051     9.0486    16.0044 </r>
       <r>    -0.2072    12.6461    17.2420 </r>
       <r>    -0.1094    15.4948    18.7584 </r>
       <r>    -0.0115    16.7639    20.3990 </r>
       <r>     0.0863     5.2131    20.9092 </r>
       <r>     0.1842     0.6235    20.9702 </r>
       <r>     0.2821     1.2412    21.0917 </r>
       <r>     0.3799     1.9133    21.2789 </r>
       <r>     0.4778     1.0669    21.3833 </r>
       <r>     0.5757     0.9980    21.4810 </r>
       <r>     0.6735     0.1695    21.4976 </r>
       <r>     0.7714     0.5913    21.5554 </r>
       <r>     0.8693     0.5658    21.6108 </r>
       <r>     0.9671     0.8953    21.6984 </r>
       <r>     1.0650     0.5115    21.7485 </r>
       <r>     1.1629     0.8645    21.8331 </r>
       <r>     1.2607     0.7001    21.9016 </r>
       <r>     1.3586     1.1982    22.0189 </r>
       <r>     1.4564     0.5917    22.0768 </r>
       <r>     1.5543     0.4762    22.1234 </r>
       <r>     1.6522     1.1969    22.2405 </r>
       <r>     1.7500     1.0314    22.3415 </r>
       <r>     1.8479     0.3606    22.3767 </r>
       <r>     1.9458     0.2209    22.3984 </r>
       <r>     2.0436     0.4901    22.4463 </r>
       <r>     2.1415     0.7664    22.5213 </r>
       <r>     2.2394     0.6233    22.5823 </r>
       <r>     2.3372     0.3826    22.6198 </r>
       <r>     2.4351     0.2973    22.6489 </r>
       <r>     2.5330     0.7992    22.7271 </r>
       <r>     2.6308     0.6855    22.7942 </r>
       <r>     2.7287     0.6120    22.8541 </r>
       <r>     2.8266     1.1433    22.9660 </r>
       <r>     2.9244     0.9579    23.0597 </r>
       <r>     3.0223     0.4844    23.1071 </r>
       <r>     3.1201     0.9176    23.1969 </r>
       <r>     3.2180     0.7442    23.2697 </r>
       <r>     3.3159     1.0106    23.3686 </r>
       <r>     3.4137     0.5607    23.4235 </r>
       <r>     3.5116     0.0916    23.4325 </r>
       <r>     3.6095     0.2492    23.4569 </r>
       <r>     3.7073     0.3791    23.4940 </r>
       <r>     3.8052     0.3923    23.5324 </r>
       <r>     3.9031     0.7161    23.6024 </r>
       <r>     4.0009     0.6244    23.6635 </r>
       <r>     4.0988     0.4003    23.7027 </r>
       <r>     4.1967     0.3214    23.7342 </r>
       <r>     4.2945     0.4647    23.7797 </r>
       <r>     4.3924     0.7710    23.8551 </r>
       <r>     4.4902     0.8831    23.9415 </r>
       <r>     4.5881     0.5925    23.9995 </r>
       <r>     4.6860     0.4766    24.0462 </r>
       <r>     4.7838     0.2522    24.0708 </r>
       <r>     4.8817     0.3793    24.1080 </r>
       <r>     4.9796     0.7768    24.1840 </r>
       <r>     5.0774     1.0040    24.2822 </r>
       <r>     5.1753     0.5388    24.3350 </r>
       <r>     5.2732     0.4377    24.3778 </r>
       <r>     5.3710     0.8042    24.4565 </r>
       <r>     5.4689     0.4493    24.5005 </r>
       <r>     5.5668     0.1632    24.5164 </r>
       <r>     5.6646     0.8369    24.5983 </r>
       <r>     5.7625     0.7299    24.6698 </r>
       <r>     5.8604     0.6489    24.7333 </r>
       <r>     5.9582     0.9434    24.8256 </r>
       <r>     6.0561     1.3142    24.9542 </r>
       <r>     6.1539     1.1136    25.0632 </r>
       <r>     6.2518     1.0169    25.1627 </r>
       <r>     6.3497     0.4561    25.2074 </r>
       <r>     6.4475     0.6666    25.2726 </r>
       <r>     6.5454     0.5384    25.3253 </r>
       <r>     6.6433     0.5643    25.3805 </r>
       <r>     6.7411     0.4672    25.4262 </r>
       <r>     6.8390     0.6736    25.4922 </r>
       <r>     6.9369     1.7900    25.6673 </r>
       <r>     7.0347     1.1988    25.7847 </r>
       <r>     7.1326     0.7172    25.8548 </r>
       <r>     7.2305     0.8699    25.9400 </r>
       <r>     7.3283     0.8135    26.0196 </r>
       <r>     7.4262     0.3970    26.0584 </r>
       <r>     7.5240     1.2690    26.1826 </r>
       <r>     7.6219     0.6042    26.2418 </r>
       <r>     7.7198     1.2786    26.3669 </r>
       <r>     7.8176     1.0755    26.4722 </r>
       <r>     7.9155     0.4318    26.5144 </r>
       <r>     8.0134     0.7357    26.5864 </r>
       <r>     8.1112     0.7792    26.6627 </r>
       <r>     8.2091     0.6769    26.7289 </r>
       <r>     8.3070     1.1309    26.8396 </r>
       <r>     8.4048     0.9589    26.9334 </r>
       <r>     8.5027     0.1743    26.9505 </r>
       <r>     8.6006     0.6457    27.0137 </r>
       <r>     8.6984     0.7330    27.0854 </r>
       <r>     8.7963     0.7374    27.1576 </r>
       <r>     8.8942     1.0281    27.2582 </r>
       <r>     8.9920     0.9092    27.3472 </r>
       <r>     9.0899     0.5369    27.3997 </r>
       <r>     9.1877     0.9585    27.4935 </r>
       <r>     9.2856     0.9926    27.5907 </r>
       <r>     9.3835     0.3439    27.6243 </r>
       <r>     9.4813     0.3828    27.6618 </r>
       <r>     9.5792     0.4738    27.7082 </r>
       <r>     9.6771     1.1225    27.8180 </r>
       <r>     9.7749     1.1091    27.9266 </r>
       <r>     9.8728     0.7960    28.0045 </r>
       <r>     9.9707     0.4056    28.0441 </r>
       <r>    10.0685     0.8878    28.1310 </r>
       <r>    10.1664     0.8343    28.2127 </r>
       <r>    10.2643     1.2577    28.3358 </r>
       <r>    10.3621     0.7809    28.4122 </r>
       <r>    10.4600     0.4571    28.4569 </r>
       <r>    10.5578     1.1447    28.5690 </r>
       <r>    10.6557     1.0399    28.6707 </r>
       <r>    10.7536     0.7398    28.7431 </r>
       <r>    10.8514     0.5228    28.7943 </r>
       <r>    10.9493     0.7081    28.8636 </r>
       <r>    11.0472     0.6463    28.9268 </r>
       <r>    11.1450     1.2696    29.0511 </r>
       <r>    11.2429     0.6830    29.1179 </r>
       <r>    11.3408     0.2955    29.1468 </r>
       <r>    11.4386     1.2572    29.2699 </r>
       <r>    11.5365     1.2643    29.3936 </r>
       <r>    11.6344     0.5816    29.4505 </r>
       <r>    11.7322     0.1789    29.4680 </r>
       <r>    11.8301     0.3208    29.4994 </r>
       <r>    11.9280     0.7861    29.5764 </r>
       <r>    12.0258     0.9417    29.6685 </r>
       <r>    12.1237     0.7211    29.7391 </r>
       <r>    12.2215     0.4554    29.7837 </r>
       <r>    12.3194     1.0779    29.8891 </r>
       <r>    12.4173     0.5728    29.9452 </r>
       <r>    12.5151     0.5301    29.9971 </r>
       <r>    12.6130     0.6995    30.0655 </r>
       <r>    12.7109     0.8035    30.1442 </r>
       <r>    12.8087     0.8544    30.2278 </r>
       <r>    12.9066     0.6804    30.2944 </r>
       <r>    13.0045     0.5215    30.3454 </r>
       <r>    13.1023     0.5953    30.4037 </r>
       <r>    13.2002     0.6911    30.4713 </r>
       <r>    13.2981     0.3422    30.5048 </r>
       <r>    13.3959     0.0118    30.5059 </r>
       <r>    13.4938     0.1529    30.5209 </r>
       <r>    13.5916     1.0188    30.6206 </r>
       <r>    13.6895     1.1833    30.7364 </r>
       <r>    13.7874     0.3495    30.7706 </r>
       <r>    13.8852     0.7731    30.8463 </r>
       <r>    13.9831     0.8201    30.9265 </r>
       <r>    14.0810     0.2485    30.9509 </r>
       <r>    14.1788     0.1691    30.9674 </r>
       <r>    14.2767     0.4145    31.0080 </r>
       <r>    14.3746     0.3372    31.0410 </r>
       <r>    14.4724     0.6404    31.1036 </r>
       <r>    14.5703     0.0587    31.1094 </r>
       <r>    14.6682     0.0387    31.1132 </r>
       <r>    14.7660     0.1487    31.1277 </r>
       <r>    14.8639     0.3317    31.1602 </r>
       <r>    14.9618     0.0434    31.1644 </r>
       <r>    15.0596     0.3362    31.1973 </r>
       <r>    15.1575     0.5686    31.2530 </r>
       <r>    15.2553     0.2537    31.2778 </r>
       <r>    15.3532     0.4738    31.3242 </r>
       <r>    15.4511     0.3241    31.3559 </r>
       <r>    15.5489     0.7154    31.4259 </r>
       <r>    15.6468     0.2984    31.4551 </r>
       <r>    15.7447     0.1207    31.4669 </r>
       <r>    15.8425     0.0013    31.4671 </r>
       <r>    15.9404     0.1449    31.4812 </r>
       <r>    16.0383     0.2863    31.5093 </r>
       <r>    16.1361     0.1815    31.5270 </r>
       <r>    16.2340     0.0977    31.5366 </r>
       <r>    16.3319     0.1820    31.5544 </r>
       <r>    16.4297     0.0689    31.5611 </r>
       <r>    16.5276     0.0878    31.5697 </r>
       <r>    16.6255     0.1680    31.5862 </r>
       <r>    16.7233     0.3827    31.6236 </r>
       <r>    16.8212     0.3492    31.6578 </r>
       <r>    16.9190     0.1193    31.6695 </r>
       <r>    17.0169     0.3077    31.6996 </r>
       <r>    17.1148     0.1733    31.7166 </r>
       <r>    17.2126     0.0045    31.7170 </r>
       <r>    17.3105     0.0100    31.7180 </r>
       <r>    17.4084     0.1737    31.7350 </r>
       <r>    17.5062     0.0324    31.7382 </r>
       <r>    17.6041     0.0296    31.7411 </r>
       <r>    17.7020     0.0329    31.7443 </r>
       <r>    17.7998     0.1852    31.7624 </r>
       <r>    17.8977     0.2203    31.7840 </r>
       <r>    17.9956     0.2042    31.8040 </r>
       <r>    18.0934     0.2266    31.8261 </r>
       <r>    18.1913     0.2027    31.8460 </r>
       <r>    18.2891     0.1059    31.8563 </r>
       <r>    18.3870     0.1837    31.8743 </r>
       <r>    18.4849     0.0430    31.8785 </r>
       <r>    18.5827     0.1798    31.8961 </r>
       <r>    18.6806     0.1605    31.9118 </r>
       <r>    18.7785     0.0718    31.9189 </r>
       <r>    18.8763     0.0867    31.9273 </r>
       <r>    18.9742     0.0151    31.9288 </r>
       <r>    19.0721     0.0001    31.9288 </r>
       <r>    19.1699     0.0652    31.9352 </r>
       <r>    19.2678     0.1608    31.9509 </r>
       <r>    19.3657     0.0102    31.9519 </r>
       <r>    19.4635     0.0876    31.9605 </r>
       <r>    19.5614     0.0152    31.9620 </r>
       <r>    19.6593     0.0384    31.9658 </r>
       <r>    19.7571     0.1496    31.9804 </r>
       <r>    19.8550     0.0228    31.9826 </r>
       <r>    19.9528     0.0043    31.9831 </r>
       <r>    20.0507     0.0588    31.9888 </r>
       <r>    20.1486     0.0079    31.9896 </r>
       <r>    20.2464     0.0000    31.9896 </r>
       <r>    20.3443     0.0001    31.9896 </r>
       <r>    20.4422     0.0252    31.9921 </r>
       <r>    20.5400     0.0451    31.9965 </r>
       <r>    20.6379     0.0006    31.9965 </r>
       <r>    20.7358     0.0000    31.9965 </r>
       <r>    20.8336     0.0000    31.9965 </r>
       <r>    20.9315     0.0056    31.9971 </r>
       <r>    21.0294     0.0285    31.9999 </r>
       <r>    21.1272     0.0014    32.0000 </r>
       <r>    21.2251     0.0000    32.0000 </r>
       <r>    21.3229     0.0000    32.0000 </r>
       <r>    21.4208     0.0000    32.0000 </r>
       <r>    21.5187     0.0000    32.0000 </r>
       <r>    21.6165     0.0000    32.0000 </r>
       <r>    21.7144     0.0000    32.0000 </r>
       <r>    21.8123     0.0000    32.0000 </r>
       <r>    21.9101     0.0000    32.0000 </r>
       <r>    22.0080     0.0000    32.0000 </r>
       <r>    22.1059     0.0000    32.0000 </r>
       <r>    22.2037     0.0000    32.0000 </r>
       <r>    22.3016     0.0000    32.0000 </r>
      </set>
     </set>
    </array>
   </total>
  </dos>
 </calculation>
 <structure name="finalpos" >
  <crystal>
   <varray name="basis" >
    <v>       2.42480000      -1.40000000       0.00000000 </v>
    <v>       0.00000000       2.80000000       0.00000000 </v>
    <v>       0.00000000       0.00000000       4.87200000 </v>
   </varray>
   <i name="volume">     33.07815168 </i>
   <varray name="rec_basis" >
    <v>       0.41240515       0.00000000       0.00000000 </v>
    <v>       0.20620257       0.35714286       0.00000000 </v>
    <v>       0.00000000       0.00000000       0.20525452 </v>
   </varray>
  </crystal>
  <varray name="positions" >
   <v>       0.00000000       0.00000000       0.00000000 </v>
   <v>       0.66670000       0.33330000       0.50000000 </v>
  </varray>
 </structure>
</modeling>
