sc Cu                                   
           1
     2.424800   -1.400000    0.000000
     0.000000    2.800000    0.000000
     0.000000    0.000000    4.872000
   Cu
     2
Direct configuration=     1
   0.00000000  0.00000000  0.00000000
   0.66670000  0.33330000  0.50000000
