fcc Cu                                  
   4.00000000000000     
     0.500000    0.500000    0.000000
     0.000000    0.500000    0.500000
     0.500000    0.000000    0.500000
   Cu
     1
Direct
  0.000000  0.000000  0.000000
 
   24   24   24
  240.80      227.66      192.19      144.26      95.286      54.356      26.297      11.348      5.8656      4.1953    
  3.2312      2.7356      2.5844      2.7356      3.2312      4.1953      5.8656      11.348      26.297      54.356    
  95.286      144.26      192.19      227.66      227.66      203.39      161.93      114.06      70.039      36.723    
  16.504      7.5068      4.8162      3.5983      2.9067      2.6035      2.6026      2.9054      3.5985      4.8176    
  7.5074      16.503      36.723      70.042      114.06      161.93      203.39      227.66      192.19      161.93    
  121.01      79.302      44.734      21.495      9.5718      5.4194      3.9666      3.0924      2.6498      2.5161    
  2.6498      3.0926      3.9669      5.4197      9.5722      21.496      44.735      79.303      121.02      161.93    
  192.19      203.39      144.26      114.06      79.302      47.743      24.572      11.335      6.0103      4.2860    
  3.2698      2.7077      2.4657      2.4664      2.7090      3.2701      4.2853      6.0099      11.335      24.572    
  47.742      79.302      114.06      144.26      161.93      161.93      95.286      70.039      44.734      24.572    
  12.030      6.4038      4.5026      3.4094      2.7625      2.4404      2.3437      2.4404      2.7627      3.4096    
  4.5025      6.4035      12.030      24.572      44.734      70.040      95.286      114.06      121.02      114.06    
  54.356      36.723      21.495      11.335      6.4038      4.5795      3.4860      2.7991      2.4274      2.2679    
  2.2674      2.4265      2.7989      3.4864      4.5798      6.4038      11.335      21.495      36.722      54.354    
  70.040      79.302      79.303      70.042      26.297      16.504      9.5718      6.0103      4.5026      3.4860    
  2.8117      2.4203      2.2248      2.1660      2.2245      2.4199      2.8116      3.4861      4.5028      6.0104    
  9.5716      16.503      26.295      36.722      44.734      47.742      44.735      36.723      11.348      7.5068    
  5.4194      4.2860      3.4094      2.7991      2.4203      2.2102      2.1183      2.1184      2.2104      2.4204    
  2.7990      3.4091      4.2858      5.4195      7.5069      11.348      16.503      21.495      24.572      24.572    
  21.496      16.503      5.8656      4.8162      3.9666      3.2698      2.7625      2.4274      2.2248      2.1183    
  2.0852      2.1181      2.2245      2.4274      2.7628      3.2704      3.9674      4.8167      5.8656      7.5069    
  9.5716      11.335      12.030      11.335      9.5722      7.5074      4.1953      3.5983      3.0924      2.7077    
  2.4404      2.2679      2.1660      2.1184      2.1181      2.1653      2.2674      2.4407      2.7090      3.0938    
  3.5987      4.1946      4.8167      5.4195      6.0104      6.4038      6.4035      6.0099      5.4197      4.8176    
  3.2312      2.9067      2.6498      2.4657      2.3437      2.2674      2.2245      2.2104      2.2245      2.2674    
  2.3437      2.4656      2.6496      2.9065      3.2312      3.5987      3.9674      4.2858      4.5028      4.5798    
  4.5025      4.2853      3.9669      3.5985      2.7356      2.6035      2.5161      2.4664      2.4404      2.4265    
  2.4199      2.4204      2.4274      2.4407      2.4656      2.5144      2.6021      2.7356      2.9065      3.0938    
  3.2704      3.4091      3.4861      3.4864      3.4096      3.2701      3.0926      2.9054      2.5844      2.6026    
  2.6498      2.7090      2.7627      2.7989      2.8116      2.7990      2.7628      2.7090      2.6496      2.6021    
  2.5839      2.6021      2.6496      2.7090      2.7628      2.7990      2.8116      2.7989      2.7627      2.7090    
  2.6498      2.6026      2.7356      2.9054      3.0926      3.2701      3.4096      3.4864      3.4861      3.4091    
  3.2704      3.0938      2.9065      2.7356      2.6021      2.5144      2.4656      2.4407      2.4274      2.4204    
  2.4199      2.4265      2.4404      2.4664      2.5161      2.6035      3.2312      3.5985      3.9669      4.2853    
  4.5025      4.5798      4.5028      4.2858      3.9674      3.5987      3.2312      2.9065      2.6496      2.4656    
  2.3437      2.2674      2.2245      2.2104      2.2245      2.2674      2.3437      2.4657      2.6498      2.9067    
  4.1953      4.8176      5.4197      6.0099      6.4035      6.4038      6.0104      5.4195      4.8167      4.1946    
  3.5987      3.0938      2.7090      2.4407      2.2674      2.1653      2.1181      2.1184      2.1660      2.2679    
  2.4404      2.7077      3.0924      3.5983      5.8656      7.5074      9.5722      11.335      12.030      11.335    
  9.5716      7.5069      5.8656      4.8167      3.9674      3.2704      2.7628      2.4274      2.2245      2.1181    
  2.0852      2.1183      2.2248      2.4274      2.7625      3.2698      3.9666      4.8162      11.348      16.503    
  21.496      24.572      24.572      21.495      16.503      11.348      7.5069      5.4195      4.2858      3.4091    
  2.7990      2.4204      2.2104      2.1184      2.1183      2.2102      2.4203      2.7991      3.4094      4.2860    
  5.4194      7.5068      26.297      36.723      44.735      47.742      44.734      36.722      26.295      16.503    
  9.5716      6.0104      4.5028      3.4861      2.8116      2.4199      2.2245      2.1660      2.2248      2.4203    
  2.8117      3.4860      4.5026      6.0103      9.5718      16.504      54.356      70.042      79.303      79.302    
  70.040      54.354      36.722      21.495      11.335      6.4038      4.5798      3.4864      2.7989      2.4265    
  2.2674      2.2679      2.4274      2.7991      3.4860      4.5795      6.4038      11.335      21.495      36.723    
  95.286      114.06      121.02      114.06      95.286      70.040      44.734      24.572      12.030      6.4035    
  4.5025      3.4096      2.7627      2.4404      2.3437      2.4404      2.7625      3.4094      4.5026      6.4038    
  12.030      24.572      44.734      70.039      144.26      161.93      161.93      144.26      114.06      79.302    
  47.742      24.572      11.335      6.0099      4.2853      3.2701      2.7090      2.4664      2.4657      2.7077    
  3.2698      4.2860      6.0103      11.335      24.572      47.743      79.302      114.06      192.19      203.39    
  192.19      161.93      121.02      79.303      44.735      21.496      9.5722      5.4197      3.9669      3.0926    
  2.6498      2.5161      2.6498      3.0924      3.9666      5.4194      9.5718      21.495      44.734      79.302    
  121.01      161.93      227.66      227.66      203.39      161.93      114.06      70.042      36.723      16.503    
  7.5074      4.8176      3.5985      2.9054      2.6026      2.6035      2.9067      3.5983      4.8162      7.5068    
  16.504      36.723      70.039      114.06      161.93      203.39      227.66      203.39      161.93      114.06    
  70.039      36.723      16.504      7.5069      4.8162      3.5982      2.9067      2.6035      2.6026      2.9053    
  3.5985      4.8177      7.5074      16.503      36.723      70.042      114.06      161.93      203.39      227.66    
  203.39      171.45      128.28      84.266      47.702      22.966      10.112      5.5595      4.0449      3.1417    
  2.6830      2.5442      2.6830      3.1419      4.0450      5.5592      10.112      22.968      47.705      84.269    
  128.28      171.44      203.39      215.22      161.93      128.28      89.547      54.242      28.057      12.779    
  6.4207      4.4612      3.3810      2.7788      2.5186      2.5194      2.7803      3.3813      4.4601      6.4199    
  12.780      28.059      54.243      89.547      128.28      161.93      181.62      181.62      114.06      84.266    
  54.242      29.990      14.476      7.1805      4.7815      3.5883      2.8737      2.5165      2.4090      2.5167    
  2.8743      3.5890      4.7816      7.1796      14.475      29.989      54.242      84.268      114.06      136.19    
  144.38      136.18      70.039      47.702      28.057      14.476      7.4891      4.9588      3.7301      2.9470    
  2.5225      2.3406      2.3401      2.5219      2.9475      3.7309      4.9584      7.4872      14.475      28.057    
  47.703      70.040      89.749      101.35      101.35      89.749      36.723      22.966      12.779      7.1805    
  4.9588      3.7816      2.9878      2.5270      2.2985      2.2303      2.2985      2.5269      2.9875      3.7812    
  4.9585      7.1807      12.779      22.965      36.721      51.011      61.856      65.908      61.857      51.012    
  16.504      10.112      6.4207      4.7815      3.7301      2.9878      2.5290      2.2779      2.1691      2.1692    
  2.2781      2.5289      2.9875      3.7302      4.7820      6.4208      10.111      16.502      24.607      32.198    
  36.798      36.797      32.198      24.607      7.5069      5.5595      4.4612      3.5883      2.9470      2.5270    
  2.2779      2.1496      2.1102      2.1494      2.2780      2.5276      2.9477      3.5884      4.4606      5.5589    
  7.5068      10.707      14.518      17.641      18.848      17.641      14.517      10.707      4.8162      4.0449    
  3.3810      2.8737      2.5225      2.2985      2.1691      2.1102      2.1100      2.1687      2.2984      2.5228    
  2.8744      3.3817      4.0454      4.8166      5.6997      6.9043      8.2071      9.0696      9.0696      8.2072    
  6.9043      5.6996      3.5982      3.1417      2.7788      2.5165      2.3406      2.2303      2.1692      2.1494    
  2.1687      2.2294      2.3399      2.5168      2.7802      3.1433      3.5987      4.1113      4.6199      5.0559    
  5.3808      5.5079      5.3806      5.0563      4.6208      4.1119      2.9067      2.6830      2.5186      2.4090    
  2.3401      2.2985      2.2781      2.2780      2.2984      2.3399      2.4087      2.5183      2.6827      2.9065    
  3.1781      3.4705      3.7466      3.9641      4.0847      4.0846      3.9638      3.7463      3.4704      3.1781    
  2.6035      2.5442      2.5194      2.5167      2.5219      2.5269      2.5289      2.5276      2.5228      2.5168    
  2.5183      2.5422      2.6021      2.7001      2.8244      2.9544      3.0681      3.1462      3.1742      3.1464    
  3.0679      2.9534      2.8234      2.7001      2.6026      2.6830      2.7803      2.8743      2.9475      2.9875    
  2.9875      2.9477      2.8744      2.7802      2.6827      2.6021      2.5541      2.5420      2.5555      2.5787    
  2.5987      2.6094      2.6093      2.5985      2.5786      2.5556      2.5423      2.5546      2.9053      3.1419    
  3.3813      3.5890      3.7309      3.7812      3.7302      3.5884      3.3817      3.1433      2.9065      2.7001    
  2.5420      2.4347      2.3678      2.3270      2.3033      2.2949      2.3026      2.3265      2.3683      2.4360    
  2.5431      2.7001      3.5985      4.0450      4.4601      4.7816      4.9584      4.9585      4.7820      4.4606    
  4.0454      3.5987      3.1781      2.8244      2.5555      2.3678      2.2453      2.1712      2.1358      2.1358    
  2.1711      2.2451      2.3677      2.5555      2.8245      3.1781      4.8177      5.5592      6.4199      7.1796    
  7.4872      7.1807      6.4208      5.5589      4.8166      4.1113      3.4705      2.9544      2.5787      2.3270    
  2.1712      2.0873      2.0610      2.0877      2.1716      2.3267      2.5776      2.9532      3.4701      4.1120    
  7.5074      10.112      12.780      14.475      14.475      12.779      10.111      7.5068      5.6997      4.6199    
  3.7466      3.0681      2.5987      2.3033      2.1358      2.0610      2.0610      2.1360      2.3036      2.5989    
  3.0679      3.7459      4.6193      5.6996      16.503      22.968      28.059      29.989      28.057      22.965    
  16.502      10.707      6.9043      5.0559      3.9641      3.1462      2.6094      2.2949      2.1358      2.0877    
  2.1360      2.2951      2.6096      3.1466      3.9647      5.0559      6.9034      10.706      36.723      47.705    
  54.243      54.242      47.703      36.721      24.607      14.518      8.2071      5.3808      4.0847      3.1742    
  2.6093      2.3026      2.1711      2.1716      2.3036      2.6096      3.1738      4.0844      5.3809      8.2071    
  14.518      24.607      70.042      84.269      89.547      84.268      70.040      51.011      32.198      17.641    
  9.0696      5.5079      4.0846      3.1464      2.5985      2.3265      2.2451      2.3267      2.5989      3.1466    
  4.0844      5.5071      9.0685      17.641      32.199      51.012      114.06      128.28      128.28      114.06    
  89.749      61.856      36.798      18.848      9.0696      5.3806      3.9638      3.0679      2.5786      2.3683    
  2.3677      2.5776      3.0679      3.9647      5.3809      9.0685      18.847      36.797      61.857      89.749    
  161.93      171.44      161.93      136.19      101.35      65.908      36.797      17.641      8.2072      5.0563    
  3.7463      2.9534      2.5556      2.4360      2.5555      2.9532      3.7459      5.0559      8.2071      17.641    
  36.797      65.907      101.35      136.18      203.39      203.39      181.62      144.38      101.35      61.857    
  32.198      14.517      6.9043      4.6208      3.4704      2.8234      2.5423      2.5431      2.8245      3.4701    
  4.6193      6.9034      14.518      32.199      61.857      101.35      144.38      181.62      227.66      215.22    
  181.62      136.18      89.749      51.012      24.607      10.707      5.6996      4.1119      3.1781      2.7001    
  2.5546      2.7001      3.1781      4.1120      5.6996      10.706      24.607      51.012      89.749      136.18    
  181.62      215.22      192.19      161.93      121.01      79.302      44.734      21.495      9.5720      5.4195    
  3.9666      3.0923      2.6498      2.5162      2.6498      3.0925      3.9670      5.4198      9.5722      21.496    
  44.735      79.304      121.02      161.93      192.19      203.39      161.93      128.28      89.547      54.242    
  28.057      12.779      6.4208      4.4612      3.3810      2.7788      2.5187      2.5195      2.7803      3.3813    
  4.4601      6.4200      12.780      28.059      54.243      89.547      128.28      161.93      181.62      181.62    
  121.01      89.547      57.790      32.037      15.423      7.4913      4.8796      3.6522      2.9133      2.5432    
  2.4320      2.5435      2.9139      3.6526      4.8794      7.4906      15.423      32.037      57.791      89.548    
  121.02      144.38      153.04      144.38      79.302      54.242      32.037      16.448      8.2034      5.1711    
  3.8641      3.0288      2.5746      2.3798      2.3794      2.5742      3.0295      3.8653      5.1710      8.2013    
  16.446      32.036      54.243      79.305      101.35      114.32      114.32      101.35      44.734      28.057    
  15.423      8.2034      5.2824      3.9830      3.1081      2.5993      2.3478      2.2729      2.3480      2.5997    
  3.1083      3.9825      5.2814      8.2022      15.422      28.056      44.734      61.857      74.783      79.602    
  74.783      61.857      21.495      12.779      7.4913      5.1711      3.9830      3.1373      2.6139      2.3293    
  2.2071      2.2075      2.3300      2.6137      3.1363      3.9821      5.1714      7.4924      12.779      21.494    
  32.197      42.048      47.968      47.969      42.050      32.199      9.5720      6.4208      4.8796      3.8641    
  3.1081      2.6139      2.3238      2.1760      2.1311      2.1760      2.3237      2.6140      3.1084      3.8645    
  4.8800      6.4210      9.5718      14.518      20.163      24.677      26.403      24.677      20.163      14.518    
  5.4195      4.4612      3.6522      3.0288      2.5993      2.3293      2.1760      2.1072      2.1070      2.1758    
  2.3298      2.6004      3.0297      3.6522      4.4606      5.4193      6.9042      9.0766      11.351      12.816    
  12.815      11.350      9.0754      6.9036      3.9666      3.3810      2.9133      2.5746      2.3478      2.2071    
  2.1311      2.1070      2.1310      2.2070      2.3478      2.5749      2.9140      3.3818      3.9673      4.6197    
  5.2768      5.9895      6.6161      6.8706      6.6161      5.9896      5.2766      4.6193      3.0923      2.7788    
  2.5432      2.3798      2.2729      2.2075      2.1760      2.1758      2.2070      2.2719      2.3790      2.5435    
  2.7802      3.0938      3.4705      3.8753      4.2559      4.5535      4.7171      4.7173      4.5542      4.2569    
  3.8759      3.4700      2.6498      2.5187      2.4320      2.3794      2.3480      2.3300      2.3237      2.3298    
  2.3478      2.3790      2.4315      2.5182      2.6495      2.8244      3.0284      3.2372      3.4207      3.5478    
  3.5934      3.5477      3.4206      3.2371      3.0285      2.8246      2.5162      2.5195      2.5435      2.5742    
  2.5997      2.6137      2.6140      2.6004      2.5749      2.5435      2.5182      2.5143      2.5419      2.5995    
  2.6744      2.7495      2.8094      2.8427      2.8427      2.8091      2.7486      2.6735      2.5995      2.5432    
  2.6498      2.7803      2.9139      3.0295      3.1083      3.1363      3.1084      3.0297      2.9140      2.7802    
  2.6495      2.5419      2.4693      2.4307      2.4150      2.4097      2.4074      2.4065      2.4072      2.4095    
  2.4149      2.4308      2.4696      2.5423      3.0925      3.3813      3.6526      3.8653      3.9825      3.9821    
  3.8645      3.6522      3.3818      3.0938      2.8244      2.5995      2.4307      2.3144      2.2382      2.1907    
  2.1668      2.1665      2.1902      2.2383      2.3151      2.4314      2.5994      2.8232      3.9670      4.4601    
  4.8794      5.1710      5.2814      5.1714      4.8800      4.4606      3.9673      3.4705      3.0284      2.6744    
  2.4150      2.2382      2.1255      2.0624      2.0419      2.0622      2.1252      2.2379      2.4149      2.6744    
  3.0285      3.4704      5.4198      6.4200      7.4906      8.2013      8.2022      7.4924      6.4210      5.4193    
  4.6197      3.8753      3.2372      2.7495      2.4097      2.1907      2.0624      2.0035      2.0036      2.0626    
  2.1906      2.4090      2.7486      3.2369      3.8760      4.6210      9.5722      12.780      15.423      16.446    
  15.422      12.779      9.5718      6.9042      5.2768      4.2559      3.4207      2.8094      2.4074      2.1668    
  2.0419      2.0036      2.0422      2.1672      2.4077      2.8094      3.4206      4.2556      5.2766      6.9043    
  21.496      28.059      32.037      32.036      28.056      21.494      14.518      9.0766      5.9895      4.5535    
  3.5478      2.8427      2.4065      2.1665      2.0622      2.0626      2.1672      2.4069      2.8429      3.5483    
  4.5539      5.9890      9.0752      14.517      44.735      54.243      57.791      54.243      44.734      32.197    
  20.163      11.351      6.6161      4.7171      3.5934      2.8427      2.4072      2.1902      2.1252      2.1906    
  2.4077      2.8429      3.5934      4.7168      6.6157      11.351      20.163      32.198      79.304      89.547    
  89.548      79.305      61.857      42.048      24.677      12.816      6.8706      4.7173      3.5477      2.8091    
  2.4095      2.2383      2.2379      2.4090      2.8094      3.5483      4.7168      6.8691      12.815      24.678    
  42.050      61.857      121.02      128.28      121.02      101.35      74.783      47.968      26.403      12.815    
  6.6161      4.5542      3.4206      2.7486      2.4149      2.3151      2.4149      2.7486      3.4206      4.5539    
  6.6157      12.815      26.402      47.968      74.783      101.35      161.93      161.93      144.38      114.32    
  79.602      47.969      24.677      11.350      5.9896      4.2569      3.2371      2.6735      2.4308      2.4314    
  2.6744      3.2369      4.2556      5.9890      11.351      24.678      47.968      79.600      114.32      144.38    
  192.19      181.62      153.04      114.32      74.783      42.050      20.163      9.0754      5.2766      3.8759    
  3.0285      2.5995      2.4696      2.5994      3.0285      3.8760      5.2766      9.0752      20.163      42.050    
  74.783      114.32      153.04      181.62      203.39      181.62      144.38      101.35      61.857      32.199    
  14.518      6.9036      4.6193      3.4700      2.8246      2.5432      2.5423      2.8232      3.4704      4.6210    
  6.9043      14.517      32.198      61.857      101.35      144.38      181.62      203.39      144.26      114.06    
  79.303      47.743      24.572      11.335      6.0104      4.2861      3.2697      2.7076      2.4658      2.4665    
  2.7089      3.2700      4.2854      6.0100      11.335      24.572      47.742      79.302      114.06      144.26    
  161.93      161.93      114.06      84.266      54.242      29.990      14.476      7.1805      4.7816      3.5883    
  2.8737      2.5164      2.4091      2.5167      2.8742      3.5889      4.7816      7.1797      14.475      29.989    
  54.242      84.268      114.06      136.19      144.38      136.18      79.303      54.242      32.038      16.448    
  8.2034      5.1711      3.8641      3.0288      2.5745      2.3798      2.3795      2.5742      3.0295      3.8653    
  5.1711      8.2013      16.446      32.036      54.243      79.305      101.35      114.32      114.32      101.35    
  47.743      29.990      16.448      8.6121      5.4048      4.0538      3.1510      2.6251      2.3652      2.2878    
  2.3655      2.6256      3.1514      4.0541      5.4044      8.6103      16.445      29.988      47.743      65.910    
  79.603      84.704      79.600      65.907      24.572      14.476      8.2034      5.4048      4.1215      3.2195    
  2.6605      2.3575      2.2277      2.2282      2.3583      2.6605      3.2188      4.1211      5.4047      8.2028    
  14.475      24.571      36.797      47.969      54.659      54.658      47.968      36.797      11.335      7.1805    
  5.1711      4.0538      3.2195      2.6733      2.3545      2.1935      2.1448      2.1937      2.3546      2.6729    
  3.2189      4.0536      5.1716      7.1815      11.335      17.640      24.676      30.235      32.349      30.236    
  24.678      17.641      6.0104      4.7816      3.8641      3.1510      2.6605      2.3545      2.1824      2.1058    
  2.1057      2.1821      2.3545      2.6608      3.1515      3.8647      4.7822      6.0109      8.2075      11.350    
  14.544      16.566      16.567      14.545      11.351      8.2072      4.2861      3.5883      3.0288      2.6251    
  2.3575      2.1935      2.1058      2.0782      2.1057      2.1935      2.3581      2.6261      3.0297      3.5886    
  4.2858      5.0560      5.9897      7.1558      8.1864      8.6007      8.1856      7.1548      5.9891      5.0560    
  3.2697      2.8737      2.5745      2.3652      2.2277      2.1448      2.1057      2.1057      2.1448      2.2276    
  2.3652      2.5748      2.8743      3.2705      3.7465      4.2559      4.7294      5.1048      5.3322      5.3323    
  5.1050      4.7295      4.2556      3.7458      2.7076      2.5164      2.3798      2.2878      2.2282      2.1937    
  2.1821      2.1935      2.2276      2.2867      2.3790      2.5166      2.7088      2.9543      3.2372      3.5267    
  3.7815      3.9578      4.0212      3.9586      3.7827      3.5274      3.2368      2.9531      2.4658      2.4091    
  2.3795      2.3655      2.3583      2.3546      2.3545      2.3581      2.3652      2.3790      2.4087      2.4654    
  2.5554      2.6743      2.8085      2.9384      3.0428      3.1014      3.1014      3.0429      2.9385      2.8085    
  2.6744      2.5556      2.4665      2.5167      2.5742      2.6256      2.6605      2.6729      2.6608      2.6261    
  2.5748      2.5166      2.4654      2.4346      2.4306      2.4495      2.4802      2.5109      2.5327      2.5405    
  2.5324      2.5101      2.4794      2.4494      2.4316      2.4362      2.7089      2.8742      3.0295      3.1514    
  3.2188      3.2189      3.1515      3.0297      2.8743      2.7088      2.5554      2.4306      2.3413      2.2834    
  2.2471      2.2245      2.2128      2.2127      2.2242      2.2468      2.2833      2.3413      2.4307      2.5555    
  3.2700      3.5889      3.8653      4.0541      4.1211      4.0536      3.8647      3.5886      3.2705      2.9543    
  2.6743      2.4495      2.2834      2.1680      2.0917      2.0469      2.0317      2.0466      2.0915      2.1683    
  2.2837      2.4492      2.6733      2.9533      4.2854      4.7816      5.1711      5.4044      5.4047      5.1716    
  4.7822      4.2858      3.7465      3.2372      2.8085      2.4802      2.2471      2.0917      1.9966      1.9511    
  1.9509      1.9962      2.0913      2.2469      2.4802      2.8085      3.2372      3.7463      6.0100      7.1797    
  8.2013      8.6103      8.2028      7.1815      6.0109      5.0560      4.2559      3.5267      2.9384      2.5109    
  2.2245      2.0469      1.9511      1.9210      1.9512      2.0468      2.2240      2.5104      2.9385      3.5275    
  4.2570      5.0564      11.335      14.475      16.446      16.445      14.475      11.335      8.2075      5.9897    
  4.7294      3.7815      3.0428      2.5327      2.2128      2.0317      1.9509      1.9512      2.0323      2.2132    
  2.5329      3.0428      3.7816      4.7295      5.9895      8.2071      24.572      29.989      32.036      29.988    
  24.571      17.640      11.350      7.1558      5.1048      3.9578      3.1014      2.5405      2.2127      2.0466    
  1.9962      2.0468      2.2132      2.5413      3.1021      3.9579      5.1042      7.1547      11.350      17.641    
  47.742      54.242      54.243      47.743      36.797      24.676      14.544      8.1864      5.3322      4.0212    
  3.1014      2.5324      2.2242      2.0915      2.0913      2.2240      2.5329      3.1021      4.0211      5.3313    
  8.1860      14.545      24.677      36.797      79.302      84.268      79.305      65.910      47.969      30.235    
  16.566      8.6007      5.3323      3.9586      3.0429      2.5101      2.2468      2.1683      2.2469      2.5104    
  3.0428      3.9579      5.3313      8.6006      16.568      30.236      47.969      65.908      114.06      114.06    
  101.35      79.603      54.659      32.349      16.567      8.1856      5.1050      3.7827      2.9385      2.4794    
  2.2833      2.2837      2.4802      2.9385      3.7816      5.1042      8.1860      16.568      32.349      54.658    
  79.602      101.35      144.26      136.19      114.32      84.704      54.658      30.236      14.545      7.1548    
  4.7295      3.5274      2.8085      2.4494      2.3413      2.4492      2.8085      3.5275      4.7295      7.1547    
  14.545      30.236      54.658      84.704      114.32      136.19      161.93      144.38      114.32      79.600    
  47.968      24.678      11.351      5.9891      4.2556      3.2368      2.6744      2.4316      2.4307      2.6733    
  3.2372      4.2570      5.9895      11.350      24.677      47.969      79.602      114.32      144.38      161.93    
  161.93      136.18      101.35      65.907      36.797      17.641      8.2072      5.0560      3.7458      2.9531    
  2.5556      2.4362      2.5555      2.9533      3.7463      5.0564      8.2071      17.641      36.797      65.908    
  101.35      136.19      161.93      171.44      95.286      70.039      44.734      24.572      12.030      6.4037    
  4.5027      3.4094      2.7624      2.4403      2.3438      2.4405      2.7626      3.4095      4.5026      6.4035    
  12.030      24.572      44.734      70.040      95.286      114.06      121.02      114.06      70.039      47.702    
  28.057      14.476      7.4890      4.9588      3.7301      2.9470      2.5224      2.3406      2.3402      2.5219    
  2.9474      3.7309      4.9585      7.4872      14.475      28.057      47.703      70.040      89.748      101.35    
  101.35      89.749      44.734      28.057      15.423      8.2034      5.2823      3.9829      3.1081      2.5992    
  2.3477      2.2729      2.3481      2.5997      3.1082      3.9825      5.2814      8.2022      15.422      28.056    
  44.734      61.857      74.783      79.602      74.783      61.857      24.572      14.476      8.2034      5.4047    
  4.1214      3.2194      2.6605      2.3575      2.2277      2.2283      2.3584      2.6605      3.2188      4.1211    
  5.4047      8.2027      14.475      24.571      36.797      47.969      54.659      54.659      47.968      36.797    
  12.030      7.4890      5.2823      4.1214      3.2587      2.6940      2.3653      2.1997      2.1497      2.1999    
  2.3655      2.6939      3.2584      4.1210      5.2818      7.4887      12.030      18.847      26.403      32.349    
  34.607      32.349      26.402      18.846      6.4037      4.9588      3.9829      3.2194      2.6940      2.3678    
  2.1856      2.1051      2.1050      2.1856      2.3678      2.6938      3.2189      3.9823      4.9590      6.4051    
  9.0700      12.815      16.567      18.924      18.925      16.567      12.815      9.0683      4.5027      3.7301    