fcc Cu                                  
   4.00000000000000     
     0.500000    0.500000    0.000000
     0.000000    0.500000    0.500000
     0.500000    0.000000    0.500000
   Cu
     1
Direct
  0.000000  0.000000  0.000000
 
   24   24   24
 0.24079927879E+03 0.22765954487E+03 0.19218856277E+03 0.14425803213E+03 0.95285735180E+02
 0.54355634962E+02 0.26296500893E+02 0.11348253564E+02 0.58655734021E+01 0.41953182788E+01
 0.32312331091E+01 0.27356108631E+01 0.25843978079E+01 0.27356108631E+01 0.32312331091E+01
 0.41953182788E+01 0.58655734021E+01 0.11348253564E+02 0.26296500893E+02 0.54355634962E+02
 0.95285735180E+02 0.14425803213E+03 0.19218856277E+03 0.22765954487E+03 0.22765954487E+03
 0.20339251463E+03 0.16192750036E+03 0.11405790786E+03 0.70039475715E+02 0.36722866557E+02
 0.16503585845E+02 0.75067878272E+01 0.48162110219E+01 0.35982545842E+01 0.29066966470E+01
 0.26034848131E+01 0.26025777168E+01 0.29053569543E+01 0.35985001506E+01 0.48176402155E+01
 0.75073831399E+01 0.16503114907E+02 0.36723426224E+02 0.70042024920E+02 0.11406002527E+03
 0.16192623855E+03 0.20338873764E+03 0.22765747279E+03 0.19218856277E+03 0.16192750036E+03
 0.12101424165E+03 0.79302418436E+02 0.44734145978E+02 0.21495213771E+02 0.95718424334E+01
 0.54194186745E+01 0.39666485768E+01 0.30923890803E+01 0.26497795671E+01 0.25160874037E+01
 0.26498188418E+01 0.30925694088E+01 0.39669485541E+01 0.54197169305E+01 0.95721779577E+01
 0.21495780046E+02 0.44734996307E+02 0.79303388706E+02 0.12101516823E+03 0.16192829107E+03
 0.19218905521E+03 0.20338873764E+03 0.14425803213E+03 0.11405790786E+03 0.79302418436E+02
 0.47742918739E+02 0.24572194035E+02 0.11334679767E+02 0.60102608727E+01 0.42859791102E+01
 0.32697701920E+01 0.27077190204E+01 0.24657030000E+01 0.24664441616E+01 0.27090107744E+01
 0.32701079025E+01 0.42853282018E+01 0.60099143077E+01 0.11335141877E+02 0.24572384813E+02
 0.47742188936E+02 0.79302312429E+02 0.11406037316E+03 0.14426210602E+03 0.16192829107E+03
 0.16192623855E+03 0.95285735180E+02 0.70039475715E+02 0.44734145978E+02 0.24572194035E+02
 0.12029892140E+02 0.64037910273E+01 0.45025763440E+01 0.34093955752E+01 0.27624958241E+01
 0.24403933181E+01 0.23437410323E+01 0.24404307792E+01 0.27626774068E+01 0.34095916810E+01
 0.45025052848E+01 0.64034732404E+01 0.12029635981E+02 0.24572134634E+02 0.44734182024E+02
 0.70039617993E+02 0.95286075903E+02 0.11406037316E+03 0.12101516823E+03 0.11406002527E+03
 0.54355634962E+02 0.36722866557E+02 0.21495213771E+02 0.11334679767E+02 0.64037910273E+01
 0.45794809632E+01 0.34859924509E+01 0.27991286962E+01 0.24273914276E+01 0.22679130863E+01
 0.22673775276E+01 0.24264726110E+01 0.27988875754E+01 0.34864349419E+01 0.45798398528E+01
 0.64038061687E+01 0.11334719412E+02 0.21495214994E+02 0.36722033554E+02 0.54353553125E+02
 0.70039617993E+02 0.79302312429E+02 0.79303388706E+02 0.70042024920E+02 0.26296500893E+02
 0.16503585845E+02 0.95718424334E+01 0.60102608727E+01 0.45025763440E+01 0.34859924509E+01
 0.28117164692E+01 0.24202545799E+01 0.22247881933E+01 0.21660101265E+01 0.22244856033E+01
 0.24199349380E+01 0.28116043151E+01 0.34860877967E+01 0.45027766929E+01 0.60103863207E+01
 0.95715657155E+01 0.16502642788E+02 0.26295054565E+02 0.36722033554E+02 0.44734182024E+02
 0.47742188936E+02 0.44734996307E+02 0.36723426224E+02 0.11348253564E+02 0.75067878272E+01
 0.54194186745E+01 0.42859791102E+01 0.34093955752E+01 0.27991286962E+01 0.24202545799E+01
 0.22102354384E+01 0.21183131225E+01 0.21183935756E+01 0.22104222473E+01 0.24203817052E+01
 0.27990206551E+01 0.34090897506E+01 0.42857527969E+01 0.54194653550E+01 0.75069373932E+01
 0.11348149904E+02 0.16502642788E+02 0.21495214994E+02 0.24572134634E+02 0.24572384813E+02
 0.21495780046E+02 0.16503114907E+02 0.58655734021E+01 0.48162110219E+01 0.39666485768E+01
 0.32697701920E+01 0.27624958241E+01 0.24273914276E+01 0.22247881933E+01 0.21183131225E+01
 0.20852218604E+01 0.21180669267E+01 0.22245148731E+01 0.24273528341E+01 0.27628222976E+01
 0.32704000794E+01 0.39673514317E+01 0.48166744944E+01 0.58655708086E+01 0.75069373932E+01
 0.95715657155E+01 0.11334719412E+02 0.12029635981E+02 0.11335141877E+02 0.95721779577E+01
 0.75073831399E+01 0.41953182788E+01 0.35982545842E+01 0.30923890803E+01 0.27077190204E+01
 0.24403933181E+01 0.22679130863E+01 0.21660101265E+01 0.21183935756E+01 0.21180669267E+01
 0.21652699017E+01 0.22673931648E+01 0.24407492314E+01 0.27090084726E+01 0.30938007119E+01
 0.35987358126E+01 0.41946400079E+01 0.48166744944E+01 0.54194653550E+01 0.60103863207E+01
 0.64038061687E+01 0.64034732404E+01 0.60099143077E+01 0.54197169305E+01 0.48176402155E+01
 0.32312331091E+01 0.29066966470E+01 0.26497795671E+01 0.24657030000E+01 0.23437410323E+01
 0.22673775276E+01 0.22244856033E+01 0.22104222473E+01 0.22245148731E+01 0.22673931648E+01
 0.23436858157E+01 0.24655518431E+01 0.26495757427E+01 0.29065457462E+01 0.32312492838E+01
 0.35987358126E+01 0.39673514317E+01 0.42857527969E+01 0.45027766929E+01 0.45798398528E+01
 0.45025052848E+01 0.42853282018E+01 0.39669485541E+01 0.35985001506E+01 0.27356108631E+01
 0.26034848131E+01 0.25160874037E+01 0.24664441616E+01 0.24404307792E+01 0.24264726110E+01
 0.24199349380E+01 0.24203817052E+01 0.24273528341E+01 0.24407492314E+01 0.24655518431E+01
 0.25143585554E+01 0.26021199312E+01 0.27356019657E+01 0.29065457462E+01 0.30938007119E+01
 0.32704000794E+01 0.34090897506E+01 0.34860877967E+01 0.34864349419E+01 0.34095916810E+01
 0.32701079025E+01 0.30925694088E+01 0.29053569543E+01 0.25843978079E+01 0.26025777168E+01
 0.26498188418E+01 0.27090107744E+01 0.27626774068E+01 0.27988875754E+01 0.28116043151E+01
 0.27990206551E+01 0.27628222976E+01 0.27090084726E+01 0.26495757427E+01 0.26021199312E+01
 0.25838552352E+01 0.26021199312E+01 0.26495757427E+01 0.27090084726E+01 0.27628222976E+01
 0.27990206551E+01 0.28116043151E+01 0.27988875754E+01 0.27626774068E+01 0.27090107744E+01
 0.26498188418E+01 0.26025777168E+01 0.27356108631E+01 0.29053569543E+01 0.30925694088E+01
 0.32701079025E+01 0.34095916810E+01 0.34864349419E+01 0.34860877967E+01 0.34090897506E+01
 0.32704000794E+01 0.30938007119E+01 0.29065457462E+01 0.27356019657E+01 0.26021199312E+01
 0.25143585554E+01 0.24655518431E+01 0.24407492314E+01 0.24273528341E+01 0.24203817052E+01
 0.24199349380E+01 0.24264726110E+01 0.24404307792E+01 0.24664441616E+01 0.25160874037E+01
 0.26034848131E+01 0.32312331091E+01 0.35985001506E+01 0.39669485541E+01 0.42853282018E+01
 0.45025052848E+01 0.45798398528E+01 0.45027766929E+01 0.42857527969E+01 0.39673514317E+01
 0.35987358126E+01 0.32312492838E+01 0.29065457462E+01 0.26495757427E+01 0.24655518431E+01
 0.23436858157E+01 0.22673931648E+01 0.22245148731E+01 0.22104222473E+01 0.22244856033E+01
 0.22673775276E+01 0.23437410323E+01 0.24657030000E+01 0.26497795671E+01 0.29066966470E+01
 0.41953182788E+01 0.48176402155E+01 0.54197169305E+01 0.60099143077E+01 0.64034732404E+01
 0.64038061687E+01 0.60103863207E+01 0.54194653550E+01 0.48166744944E+01 0.41946400079E+01
 0.35987358126E+01 0.30938007119E+01 0.27090084726E+01 0.24407492314E+01 0.22673931648E+01
 0.21652699017E+01 0.21180669267E+01 0.21183935756E+01 0.21660101265E+01 0.22679130863E+01
 0.24403933181E+01 0.27077190204E+01 0.30923890803E+01 0.35982545842E+01 0.58655734021E+01
 0.75073831399E+01 0.95721779577E+01 0.11335141877E+02 0.12029635981E+02 0.11334719412E+02
 0.95715657155E+01 0.75069373932E+01 0.58655708086E+01 0.48166744944E+01 0.39673514317E+01
 0.32704000794E+01 0.27628222976E+01 0.24273528341E+01 0.22245148731E+01 0.21180669267E+01
 0.20852218604E+01 0.21183131225E+01 0.22247881933E+01 0.24273914276E+01 0.27624958241E+01
 0.32697701920E+01 0.39666485768E+01 0.48162110219E+01 0.11348253564E+02 0.16503114907E+02
 0.21495780046E+02 0.24572384813E+02 0.24572134634E+02 0.21495214994E+02 0.16502642788E+02
 0.11348149904E+02 0.75069373932E+01 0.54194653550E+01 0.42857527969E+01 0.34090897506E+01
 0.27990206551E+01 0.24203817052E+01 0.22104222473E+01 0.21183935756E+01 0.21183131225E+01
 0.22102354384E+01 0.24202545799E+01 0.27991286962E+01 0.34093955752E+01 0.42859791102E+01
 0.54194186745E+01 0.75067878272E+01 0.26296500893E+02 0.36723426224E+02 0.44734996307E+02
 0.47742188936E+02 0.44734182024E+02 0.36722033554E+02 0.26295054565E+02 0.16502642788E+02
 0.95715657155E+01 0.60103863207E+01 0.45027766929E+01 0.34860877967E+01 0.28116043151E+01
 0.24199349380E+01 0.22244856033E+01 0.21660101265E+01 0.22247881933E+01 0.24202545799E+01
 0.28117164692E+01 0.34859924509E+01 0.45025763440E+01 0.60102608727E+01 0.95718424334E+01
 0.16503585845E+02 0.54355634962E+02 0.70042024920E+02 0.79303388706E+02 0.79302312429E+02
 0.70039617993E+02 0.54353553125E+02 0.36722033554E+02 0.21495214994E+02 0.11334719412E+02
 0.64038061687E+01 0.45798398528E+01 0.34864349419E+01 0.27988875754E+01 0.24264726110E+01
 0.22673775276E+01 0.22679130863E+01 0.24273914276E+01 0.27991286962E+01 0.34859924509E+01
 0.45794809632E+01 0.64037910273E+01 0.11334679767E+02 0.21495213771E+02 0.36722866557E+02
 0.95285735180E+02 0.11406002527E+03 0.12101516823E+03 0.11406037316E+03 0.95286075903E+02
 0.70039617993E+02 0.44734182024E+02 0.24572134634E+02 0.12029635981E+02 0.64034732404E+01
 0.45025052848E+01 0.34095916810E+01 0.27626774068E+01 0.24404307792E+01 0.23437410323E+01
 0.24403933181E+01 0.27624958241E+01 0.34093955752E+01 0.45025763440E+01 0.64037910273E+01
 0.12029892140E+02 0.24572194035E+02 0.44734145978E+02 0.70039475715E+02 0.14425803213E+03
 0.16192623855E+03 0.16192829107E+03 0.14426210602E+03 0.11406037316E+03 0.79302312429E+02
 0.47742188936E+02 0.24572384813E+02 0.11335141877E+02 0.60099143077E+01 0.42853282018E+01
 0.32701079025E+01 0.27090107744E+01 0.24664441616E+01 0.24657030000E+01 0.27077190204E+01
 0.32697701920E+01 0.42859791102E+01 0.60102608727E+01 0.11334679767E+02 0.24572194035E+02
 0.47742918739E+02 0.79302418436E+02 0.11405790786E+03 0.19218856277E+03 0.20338873764E+03
 0.19218905521E+03 0.16192829107E+03 0.12101516823E+03 0.79303388706E+02 0.44734996307E+02
 0.21495780046E+02 0.95721779577E+01 0.54197169305E+01 0.39669485541E+01 0.30925694088E+01
 0.26498188418E+01 0.25160874037E+01 0.26497795671E+01 0.30923890803E+01 0.39666485768E+01
 0.54194186745E+01 0.95718424334E+01 0.21495213771E+02 0.44734145978E+02 0.79302418436E+02
 0.12101424165E+03 0.16192750036E+03 0.22765954487E+03 0.22765747279E+03 0.20338873764E+03
 0.16192623855E+03 0.11406002527E+03 0.70042024920E+02 0.36723426224E+02 0.16503114907E+02
 0.75073831399E+01 0.48176402155E+01 0.35985001506E+01 0.29053569543E+01 0.26025777168E+01
 0.26034848131E+01 0.29066966470E+01 0.35982545842E+01 0.48162110219E+01 0.75067878272E+01
 0.16503585845E+02 0.36722866557E+02 0.70039475715E+02 0.11405790786E+03 0.16192750036E+03
 0.20339251463E+03 0.22765944185E+03 0.20339234732E+03 0.16192740233E+03 0.11405788218E+03
 0.70039437106E+02 0.36722830619E+02 0.16503625801E+02 0.75068592523E+01 0.48162130068E+01
 0.35982161047E+01 0.29067161781E+01 0.26035380752E+01 0.26025715219E+01 0.29053179390E+01
 0.35985208619E+01 0.48176927723E+01 0.75073768910E+01 0.16503086038E+02 0.36723479737E+02
 0.70042138316E+02 0.11406009485E+03 0.16192626590E+03 0.20338878448E+03 0.22765749010E+03
 0.20339234732E+03 0.17144787242E+03 0.12828305602E+03 0.84266148057E+02 0.47701660914E+02
 0.22965723249E+02 0.10111826410E+02 0.55594860103E+01 0.40448663045E+01 0.31417472247E+01
 0.26830094208E+01 0.25441785897E+01 0.26829937794E+01 0.31419399896E+01 0.40449933650E+01
 0.55591582505E+01 0.10111804701E+02 0.22967554134E+02 0.47705345276E+02 0.84269076269E+02
 0.12828237518E+03 0.17144383169E+03 0.20338854827E+03 0.21521979256E+03 0.16192740233E+03
 0.12828305602E+03 0.89547099129E+02 0.54242040561E+02 0.28056622997E+02 0.12778911659E+02
 0.64207452913E+01 0.44611718280E+01 0.33809898770E+01 0.27788321535E+01 0.25186212818E+01
 0.25194397425E+01 0.27802771533E+01 0.33812871839E+01 0.44600582053E+01 0.64199099286E+01
 0.12779867168E+02 0.28058716859E+02 0.54243368664E+02 0.89547033510E+02 0.12828272303E+03
 0.16192765420E+03 0.18162245547E+03 0.18162217695E+03 0.11405788218E+03 0.84266148057E+02
 0.54242040561E+02 0.29990311901E+02 0.14476237609E+02 0.71805036923E+01 0.47815354689E+01
 0.35883212478E+01 0.28737493719E+01 0.25164595059E+01 0.24090461412E+01 0.25166609410E+01
 0.28743152103E+01 0.35889679744E+01 0.47815676541E+01 0.71796189336E+01 0.14474894924E+02
 0.29989312730E+02 0.54242119766E+02 0.84267719243E+02 0.11406048563E+03 0.13618556084E+03
 0.14438112159E+03 0.13618348323E+03 0.70039437106E+02 0.47701660914E+02 0.28056622997E+02
 0.14476237609E+02 0.74891240011E+01 0.49588131692E+01 0.37300575120E+01 0.29470033627E+01
 0.25224681645E+01 0.23405756979E+01 0.23401051606E+01 0.25219354661E+01 0.29475204519E+01
 0.37309211406E+01 0.49583564248E+01 0.74872237413E+01 0.14474636946E+02 0.28056646355E+02
 0.47702672491E+02 0.70039977548E+02 0.89748632838E+02 0.10135025046E+03 0.10135054600E+03
 0.89748934624E+02 0.36722830619E+02 0.22965723249E+02 0.12778911659E+02 0.71805036923E+01
 0.49588131692E+01 0.37816425082E+01 0.29877593907E+01 0.25269833045E+01 0.22985182443E+01
 0.22302605558E+01 0.22984866536E+01 0.25268767760E+01 0.29874555916E+01 0.37811648417E+01
 0.49585146477E+01 0.71806630817E+01 0.12779163947E+02 0.22965289913E+02 0.36721416745E+02
 0.51010533073E+02 0.61855886491E+02 0.65907550495E+02 0.61857104990E+02 0.51012332988E+02
 0.16503625801E+02 0.10111826410E+02 0.64207452913E+01 0.47815354689E+01 0.37300575120E+01
 0.29877593907E+01 0.25290250894E+01 0.22778764732E+01 0.21690876881E+01 0.21692279828E+01
 0.22780513819E+01 0.25289023138E+01 0.29875138923E+01 0.37301750193E+01 0.47819878311E+01
 0.64207879546E+01 0.10110942776E+02 0.16502381842E+02 0.24606705850E+02 0.32197864159E+02
 0.36797571198E+02 0.36797273178E+02 0.32197555542E+02 0.24607259661E+02 0.75068592523E+01
 0.55594860103E+01 0.44611718280E+01 0.35883212478E+01 0.29470033627E+01 0.25269833045E+01
 0.22778764732E+01 0.21495582907E+01 0.21101825715E+01 0.21494214147E+01 0.22780314628E+01
 0.25276135369E+01 0.29476583748E+01 0.35883832424E+01 0.44605894177E+01 0.55588644079E+01
 0.75068449230E+01 0.10707287938E+02 0.14518054872E+02 0.17641325555E+02 0.18848131332E+02
 0.17640661222E+02 0.14517084418E+02 0.10706589965E+02 0.48162130068E+01 0.40448663045E+01
 0.33809898770E+01 0.28737493719E+01 0.25224681645E+01 0.22985182443E+01 0.21690876881E+01
 0.21101825715E+01 0.21100055776E+01 0.21687459828E+01 0.22983977612E+01 0.25227968294E+01
 0.28744263854E+01 0.33817277310E+01 0.40454388298E+01 0.48165528174E+01 0.56997001632E+01
 0.69043194845E+01 0.82071371538E+01 0.90695579887E+01 0.90696059352E+01 0.82072273098E+01
 0.69043420828E+01 0.56995679896E+01 0.35982161047E+01 0.31417472247E+01 0.27788321535E+01
 0.25164595059E+01 0.23405756979E+01 0.22302605558E+01 0.21692279828E+01 0.21494214147E+01
 0.21687459828E+01 0.22294058106E+01 0.23398996487E+01 0.25167502757E+01 0.27802258731E+01
 0.31432939388E+01 0.35987346781E+01 0.41112609997E+01 0.46199352177E+01 0.50559387107E+01
 0.53807537524E+01 0.55079327607E+01 0.53806130557E+01 0.50562533321E+01 0.46208466903E+01
 0.41119279489E+01 0.29067161781E+01 0.26830094208E+01 0.25186212818E+01 0.24090461412E+01
 0.23401051606E+01 0.22984866536E+01 0.22780513819E+01 0.22780314628E+01 0.22983977612E+01
 0.23398996487E+01 0.24087278797E+01 0.25182626569E+01 0.26827042399E+01 0.29065336286E+01
 0.31781052275E+01 0.34705499870E+01 0.37465611062E+01 0.39641327555E+01 0.40847365803E+01
 0.40846148432E+01 0.39638439141E+01 0.37462702618E+01 0.34703909171E+01 0.31781241683E+01
 0.26035380752E+01 0.25441785897E+01 0.25194397425E+01 0.25166609410E+01 0.25219354661E+01
 0.25268767760E+01 0.25289023138E+01 0.25276135369E+01 0.25227968294E+01 0.25167502757E+01
 0.25182626569E+01 0.25422402562E+01 0.26020991863E+01 0.27001201021E+01 0.28244234766E+01
 0.29544093746E+01 0.30681133610E+01 0.31461794743E+01 0.31742278434E+01 0.31463988686E+01
 0.30678735006E+01 0.29533917311E+01 0.28233571597E+01 0.27001496854E+01 0.26025715219E+01
 0.26829937794E+01 0.27802771533E+01 0.28743152103E+01 0.29475204519E+01 0.29874555916E+01
 0.29875138923E+01 0.29476583748E+01 0.28744263854E+01 0.27802258731E+01 0.26827042399E+01
 0.26020991863E+01 0.25541112290E+01 0.25419872931E+01 0.25555264288E+01 0.25786885229E+01
 0.25986875206E+01 0.26094240951E+01 0.26093452181E+01 0.25985181646E+01 0.25785826200E+01
 0.25556222062E+01 0.25423238495E+01 0.25546022133E+01 0.29053179390E+01 0.31419399896E+01
 0.33812871839E+01 0.35889679744E+01 0.37309211406E+01 0.37811648417E+01 0.37301750193E+01
 0.35883832424E+01 0.33817277310E+01 0.31432939388E+01 0.29065336286E+01 0.27001201021E+01
 0.25419872931E+01 0.24347277329E+01 0.23678216534E+01 0.23269910576E+01 0.23033055572E+01
 0.22949283282E+01 0.23026342465E+01 0.23264962650E+01 0.23682994687E+01 0.24360391413E+01
 0.25430990537E+01 0.27000573010E+01 0.35985208619E+01 0.40449933650E+01 0.44600582053E+01
 0.47815676541E+01 0.49583564248E+01 0.49585146477E+01 0.47819878311E+01 0.44605894177E+01
 0.40454388298E+01 0.35987346781E+01 0.31781052275E+01 0.28244234766E+01 0.25555264288E+01
 0.23678216534E+01 0.22452832284E+01 0.21712370151E+01 0.21358088537E+01 0.21357520391E+01
 0.21710810928E+01 0.22450903265E+01 0.23677003309E+01 0.25555485308E+01 0.28245293161E+01
 0.31781238270E+01 0.48176927723E+01 0.55591582505E+01 0.64199099286E+01 0.71796189336E+01
 0.74872237413E+01 0.71806630817E+01 0.64207879546E+01 0.55588644079E+01 0.48165528174E+01
 0.41112609997E+01 0.34705499870E+01 0.29544093746E+01 0.25786885229E+01 0.23269910576E+01
 0.21712370151E+01 0.20873034957E+01 0.20610044556E+01 0.20877450633E+01 0.21716348888E+01
 0.23267398679E+01 0.25776367499E+01 0.29531824758E+01 0.34701320898E+01 0.41120160129E+01
 0.75073768910E+01 0.10111804701E+02 0.12779867168E+02 0.14474894924E+02 0.14474636946E+02
 0.12779163947E+02 0.10110942776E+02 0.75068449230E+01 0.56997001632E+01 0.46199352177E+01
 0.37465611062E+01 0.30681133610E+01 0.25986875206E+01 0.23033055572E+01 0.21358088537E+01
 0.20610044556E+01 0.20610494667E+01 0.21359791807E+01 0.23035929176E+01 0.25988813122E+01
 0.30679096636E+01 0.37459232224E+01 0.46192739124E+01 0.56995565824E+01 0.16503086038E+02
 0.22967554134E+02 0.28058716859E+02 0.29989312730E+02 0.28056646355E+02 0.22965289913E+02
 0.16502381842E+02 0.10707287938E+02 0.69043194845E+01 0.50559387107E+01 0.39641327555E+01
 0.31461794743E+01 0.26094240951E+01 0.22949283282E+01 0.21357520391E+01 0.20877450633E+01
 0.21359791807E+01 0.22951244877E+01 0.26096108393E+01 0.31466460785E+01 0.39647267754E+01
 0.50559288202E+01 0.69034205600E+01 0.10706486297E+02 0.36723479737E+02 0.47705345276E+02
 0.54243368664E+02 0.54242119766E+02 0.47702672491E+02 0.36721416745E+02 0.24606705850E+02
 0.14518054872E+02 0.82071371538E+01 0.53807537524E+01 0.40847365803E+01 0.31742278434E+01
 0.26093452181E+01 0.23026342465E+01 0.21710810928E+01 0.21716348888E+01 0.23035929176E+01
 0.26096108393E+01 0.31737895256E+01 0.40844297142E+01 0.53808638694E+01 0.82071459210E+01
 0.14517869217E+02 0.24607268452E+02 0.70042138316E+02 0.84269076269E+02 0.89547033510E+02
 0.84267719243E+02 0.70039977548E+02 0.51010533073E+02 0.32197864159E+02 0.17641325555E+02
 0.90695579887E+01 0.55079327607E+01 0.40846148432E+01 0.31463988686E+01 0.25985181646E+01
 0.23264962650E+01 0.22450903265E+01 0.23267398679E+01 0.25988813122E+01 0.31466460785E+01
 0.40844297142E+01 0.55071320020E+01 0.90684686844E+01 0.17640807626E+02 0.32198646057E+02
 0.51012476412E+02 0.11406009485E+03 0.12828237518E+03 0.12828272303E+03 0.11406048563E+03
 0.89748632838E+02 0.61855886491E+02 0.36797571198E+02 0.18848131332E+02 0.90696059352E+01
 0.53806130557E+01 0.39638439141E+01 0.30678735006E+01 0.25785826200E+01 0.23682994687E+01
 0.23677003309E+01 0.25776367499E+01 0.30679096636E+01 0.39647267754E+01 0.53808638694E+01
 0.90684686844E+01 0.18846670958E+02 0.36797228281E+02 0.61856563409E+02 0.89749037468E+02
 0.16192626590E+03 0.17144383169E+03 0.16192765420E+03 0.13618556084E+03 0.10135025046E+03
 0.65907550495E+02 0.36797273178E+02 0.17640661222E+02 0.82072273098E+01 0.50562533321E+01
 0.37462702618E+01 0.29533917311E+01 0.25556222062E+01 0.24360391413E+01 0.25555485308E+01
 0.29531824758E+01 0.37459232224E+01 0.50559288202E+01 0.82071459210E+01 0.17640807626E+02
 0.36797228281E+02 0.65906757588E+02 0.10134856110E+03 0.13618353207E+03 0.20338878448E+03
 0.20338854827E+03 0.18162245547E+03 0.14438112159E+03 0.10135054600E+03 0.61857104990E+02
 0.32197555542E+02 0.14517084418E+02 0.69043420828E+01 0.46208466903E+01 0.34703909171E+01
 0.28233571597E+01 0.25423238495E+01 0.25430990537E+01 0.28245293161E+01 0.34701320898E+01
 0.46192739124E+01 0.69034205600E+01 0.14517869217E+02 0.32198646057E+02 0.61856563409E+02
 0.10134856110E+03 0.14437960593E+03 0.18162231814E+03 0.22765749010E+03 0.21521979256E+03
 0.18162217695E+03 0.13618348323E+03 0.89748934624E+02 0.51012332988E+02 0.24607259661E+02
 0.10706589965E+02 0.56995679896E+01 0.41119279489E+01 0.31781241683E+01 0.27001496854E+01
 0.25546022133E+01 0.27000573010E+01 0.31781238270E+01 0.41120160129E+01 0.56995565824E+01
 0.10706486297E+02 0.24607268452E+02 0.51012476412E+02 0.89749037468E+02 0.13618353207E+03
 0.18162231814E+03 0.21521997455E+03 0.19218833718E+03 0.16192727406E+03 0.12101420888E+03
 0.79302492625E+02 0.44734152748E+02 0.21495211774E+02 0.95719528222E+01 0.54195337435E+01
 0.39666212098E+01 0.30923254280E+01 0.26498387097E+01 0.25161761650E+01 0.26497852911E+01
 0.30925078355E+01 0.39670096593E+01 0.54198076437E+01 0.95721549089E+01 0.21495749460E+02
 0.44735113564E+02 0.79303545763E+02 0.12101518301E+03 0.16192822131E+03 0.19218902810E+03
 0.20338866571E+03 0.16192727406E+03 0.12828299033E+03 0.89547158629E+02 0.54242136203E+02
 0.28056664809E+02 0.12778942799E+02 0.64208148260E+01 0.44612162755E+01 0.33809615845E+01
 0.27788081214E+01 0.25186632271E+01 0.25194786930E+01 0.27802530809E+01 0.33812676864E+01
 0.44601025926E+01 0.64199528951E+01 0.12779854581E+02 0.28058718481E+02 0.54243435721E+02
 0.89547080011E+02 0.12828266895E+03 0.16192755537E+03 0.18162237854E+03 0.18162208373E+03
 0.12101420888E+03 0.89547158629E+02 0.57790384208E+02 0.32037411303E+02 0.15423227938E+02
 0.74913450102E+01 0.48795812763E+01 0.36521735179E+01 0.29133361985E+01 0.25432288625E+01
 0.24319567068E+01 0.25435424580E+01 0.29139238447E+01 0.36526358063E+01 0.48794195692E+01
 0.74906298587E+01 0.15422554555E+02 0.32037192106E+02 0.57790628223E+02 0.89547832614E+02
 0.12101521569E+03 0.14438035922E+03 0.15303710290E+03 0.14437953623E+03 0.79302492625E+02
 0.54242136203E+02 0.32037411303E+02 0.16448400538E+02 0.82033946954E+01 0.51710706061E+01
 0.38640578546E+01 0.30287842183E+01 0.25745600433E+01 0.23798382531E+01 0.23794314526E+01
 0.25741804434E+01 0.30295498336E+01 0.38653480140E+01 0.51710362964E+01 0.82013021504E+01
 0.16445594742E+02 0.32035895444E+02 0.54242777065E+02 0.79304621051E+02 0.10135078028E+03
 0.11431622289E+03 0.11431533083E+03 0.10134861722E+03 0.44734152748E+02 0.28056664809E+02
 0.15423227938E+02 0.82033946954E+01 0.52823887581E+01 0.39829649390E+01 0.31080665997E+01
 0.25992657143E+01 0.23477658938E+01 0.22728667985E+01 0.23480375202E+01 0.25996854070E+01
 0.31082610156E+01 0.39825341785E+01 0.52813507878E+01 0.82021902180E+01 0.15422278634E+02
 0.28056142010E+02 0.44734096409E+02 0.61856831918E+02 0.74783173719E+02 0.79602107152E+02
 0.74782820733E+02 0.61856511570E+02 0.21495211774E+02 0.12778942799E+02 0.74913450102E+01
 0.51710706061E+01 0.39829649390E+01 0.31373453811E+01 0.26138905958E+01 0.23293380180E+01
 0.22071307478E+01 0.22075427766E+01 0.23299621216E+01 0.26136975377E+01 0.31362804794E+01
 0.39821271949E+01 0.51713958580E+01 0.74924236323E+01 0.12779437957E+02 0.21494311441E+02
 0.32196695970E+02 0.42048063836E+02 0.47968203895E+02 0.47968856327E+02 0.42049742493E+02
 0.32198542291E+02 0.95719528222E+01 0.64208148260E+01 0.48795812763E+01 0.38640578546E+01
 0.31080665997E+01 0.26138905958E+01 0.23238037777E+01 0.21760453930E+01 0.21310855480E+01
 0.21759643077E+01 0.23237397466E+01 0.26139791797E+01 0.31083722956E+01 0.38644990541E+01
 0.48799714848E+01 0.64209806926E+01 0.95718182882E+01 0.14517542812E+02 0.20162571519E+02
 0.24676888574E+02 0.26402684071E+02 0.24677225175E+02 0.20163055963E+02 0.14517934142E+02
 0.54195337435E+01 0.44612162755E+01 0.36521735179E+01 0.30287842183E+01 0.25992657143E+01
 0.23293380180E+01 0.21760453930E+01 0.21072322628E+01 0.21070088814E+01 0.21758179408E+01
 0.23298224022E+01 0.26004152688E+01 0.30297078875E+01 0.36521703769E+01 0.44606243317E+01
 0.54193215087E+01 0.69042352149E+01 0.90765567825E+01 0.11350761174E+02 0.12815539752E+02
 0.12815196795E+02 0.11349814247E+02 0.90754003511E+01 0.69035687543E+01 0.39666212098E+01
 0.33809615845E+01 0.29133361985E+01 0.25745600433E+01 0.23477658938E+01 0.22071307478E+01
 0.21310855480E+01 0.21070088814E+01 0.21309556512E+01 0.22069676697E+01 0.23477620341E+01
 0.25748939025E+01 0.29140091581E+01 0.33817790718E+01 0.39673432428E+01 0.46197337745E+01
 0.52768111244E+01 0.59895423311E+01 0.66160572436E+01 0.68706454455E+01 0.66161320514E+01
 0.59895564286E+01 0.52766142331E+01 0.46192569503E+01 0.30923254280E+01 0.27788081214E+01
 0.25432288625E+01 0.23798382531E+01 0.22728667985E+01 0.22075427766E+01 0.21759643077E+01
 0.21758179408E+01 0.22069676697E+01 0.22718613976E+01 0.23790364641E+01 0.25434754966E+01
 0.27801545094E+01 0.30937887452E+01 0.34705368229E+01 0.38753263836E+01 0.42559365903E+01
 0.45535192960E+01 0.47171133167E+01 0.47173142883E+01 0.45541673954E+01 0.42568748373E+01
 0.38758894848E+01 0.34700201136E+01 0.26498387097E+01 0.25186632271E+01 0.24319567068E+01
 0.23794314526E+01 0.23480375202E+01 0.23299621216E+01 0.23237397465E+01 0.23298224022E+01
 0.23477620341E+01 0.23790364641E+01 0.24314900397E+01 0.25182107465E+01 0.26494926434E+01
 0.28243812121E+01 0.30284411348E+01 0.32372306833E+01 0.34207461896E+01 0.35478342635E+01
 0.35934338789E+01 0.35477378559E+01 0.34206152970E+01 0.32371473295E+01 0.30284724612E+01
 0.28245686037E+01 0.25161761650E+01 0.25194786930E+01 0.25435424580E+01 0.25741804434E+01
 0.25996854070E+01 0.26136975377E+01 0.26139791797E+01 0.26004152688E+01 0.25748939025E+01
 0.25434754966E+01 0.25182107465E+01 0.25142763747E+01 0.25419239325E+01 0.25995445605E+01
 0.26743956095E+01 0.27494510732E+01 0.28093780790E+01 0.28426698511E+01 0.28426521468E+01
 0.28090720090E+01 0.27485944440E+01 0.26734561761E+01 0.25995098495E+01 0.25432244357E+01
 0.26497852911E+01 0.27802530809E+01 0.29139238447E+01 0.30295498336E+01 0.31082610156E+01
 0.31362804794E+01 0.31083722956E+01 0.30297078875E+01 0.29140091581E+01 0.27801545094E+01
 0.26494926434E+01 0.25419239325E+01 0.24693115569E+01 0.24307031349E+01 0.24150236876E+01
 0.24096746917E+01 0.24073802835E+01 0.24064905481E+01 0.24072203491E+01 0.24094643688E+01
 0.24149107702E+01 0.24307884350E+01 0.24695945477E+01 0.25422945417E+01 0.30925078355E+01
 0.33812676864E+01 0.36526358063E+01 0.38653480140E+01 0.39825341785E+01 0.39821271949E+01
 0.38644990541E+01 0.36521703769E+01 0.33817790718E+01 0.30937887452E+01 0.28243812121E+01
 0.25995445605E+01 0.24307031349E+01 0.23143566059E+01 0.22382017740E+01 0.21906953504E+01
 0.21668191330E+01 0.21665139094E+01 0.21902072111E+01 0.22382835049E+01 0.23151317083E+01
 0.24314254984E+01 0.25993621456E+01 0.28232408184E+01 0.39670096593E+01 0.44601025926E+01
 0.48794195692E+01 0.51710362964E+01 0.52813507878E+01 0.51713958580E+01 0.48799714848E+01
 0.44606243317E+01 0.39673432428E+01 0.34705368229E+01 0.30284411348E+01 0.26743956095E+01
 0.24150236876E+01 0.22382017740E+01 0.21255014941E+01 0.20624288050E+01 0.20419062701E+01
 0.20622132089E+01 0.21251671507E+01 0.22379032657E+01 0.24148813124E+01 0.26744041510E+01
 0.30284704987E+01 0.34704277627E+01 0.54198076437E+01 0.64199528951E+01 0.74906298587E+01
 0.82013021504E+01 0.82021902180E+01 0.74924236323E+01 0.64209806926E+01 0.54193215087E+01
 0.46197337745E+01 0.38753263836E+01 0.32372306833E+01 0.27494510732E+01 0.24096746917E+01
 0.21906953504E+01 0.20624288050E+01 0.20035072240E+01 0.20036119096E+01 0.20625863132E+01
 0.21905521901E+01 0.24090200354E+01 0.27485856103E+01 0.32369047822E+01 0.38760331577E+01
 0.46209678868E+01 0.95721549089E+01 0.12779854581E+02 0.15422554555E+02 0.16445594742E+02
 0.15422278634E+02 0.12779437957E+02 0.95718182882E+01 0.69042352149E+01 0.52768111244E+01
 0.42559365903E+01 0.34207461896E+01 0.28093780790E+01 0.24073802835E+01 0.21668191330E+01
 0.20419062701E+01 0.20036119096E+01 0.20421872982E+01 0.21672200831E+01 0.24076859738E+01
 0.28094402253E+01 0.34205537070E+01 0.42556277773E+01 0.52766099149E+01 0.69043094154E+01
 0.21495749460E+02 0.28058718481E+02 0.32037192106E+02 0.32035895444E+02 0.28056142010E+02
 0.21494311441E+02 0.14517542812E+02 0.90765567825E+01 0.59895423311E+01 0.45535192960E+01
 0.35478342635E+01 0.28426698511E+01 0.24064905481E+01 0.21665139094E+01 0.20622132089E+01
 0.20625863132E+01 0.21672200831E+01 0.24069366841E+01 0.28429438948E+01 0.35483220933E+01
 0.45539053346E+01 0.59890184566E+01 0.90752479670E+01 0.14516975267E+02 0.44735113564E+02
 0.54243435721E+02 0.57790628223E+02 0.54242777065E+02 0.44734096409E+02 0.32196695970E+02
 0.20162571519E+02 0.11350761174E+02 0.66160572436E+01 0.47171133167E+01 0.35934338789E+01
 0.28426521468E+01 0.24072203491E+01 0.21902072111E+01 0.21251671507E+01 0.21905521901E+01
 0.24076859738E+01 0.28429438948E+01 0.35933773436E+01 0.47167639507E+01 0.66156839872E+01
 0.11350708064E+02 0.20163049094E+02 0.32197622943E+02 0.79303545763E+02 0.89547080011E+02
 0.89547832614E+02 0.79304621051E+02 0.61856831918E+02 0.42048063836E+02 0.24676888574E+02
 0.12815539752E+02 0.68706454455E+01 0.47173142883E+01 0.35477378559E+01 0.28090720090E+01
 0.24094643688E+01 0.22382835049E+01 0.22379032657E+01 0.24090200354E+01 0.28094402253E+01
 0.35483220933E+01 0.47167639507E+01 0.68690574283E+01 0.12814726875E+02 0.24678002292E+02