   1   1   0   0
  0.1600000E+02  0.2828427E-09  0.2828427E-09  0.2828427E-09  0.5000000E-15
  1.000000000000000E-004
  CAR 
 fcc Cu                                  
     25.63033019     -7.15674111  301      1.56017162      1.00000000
     -7.157  0.0000E+00  0.0000E+00
     -7.047  0.0000E+00  0.0000E+00
     -6.938  0.0000E+00  0.0000E+00
     -6.829  0.0000E+00  0.0000E+00
     -6.720  0.0000E+00  0.0000E+00
     -6.610  0.0000E+00  0.0000E+00
     -6.501  0.0000E+00  0.0000E+00
     -6.392  0.0000E+00  0.0000E+00
     -6.282  0.0000E+00  0.0000E+00
     -6.173  0.0000E+00  0.0000E+00
     -6.064  0.0000E+00  0.0000E+00
     -5.955  0.3527E-17  0.3855E-18
     -5.845  0.4479E-08  0.4895E-09
     -5.736  0.5207E-03  0.5691E-04
     -5.627  0.1811E-01  0.2036E-02
     -5.517  0.4369E-01  0.6811E-02
     -5.408  0.4564E-01  0.1180E-01
     -5.299  0.5259E-01  0.1755E-01
     -5.190  0.7615E-01  0.2587E-01
     -5.080  0.1132E+00  0.3824E-01
     -4.971  0.5943E-01  0.4473E-01
     -4.862  0.8247E-01  0.5375E-01
     -4.752  0.1190E+00  0.6675E-01
     -4.643  0.1394E+00  0.8198E-01
     -4.534  0.6257E-01  0.8882E-01
     -4.424  0.1354E+00  0.1036E+00
     -4.315  0.1686E+00  0.1220E+00
     -4.206  0.1156E+00  0.1347E+00
     -4.097  0.1532E+00  0.1514E+00
     -3.987  0.1586E+00  0.1688E+00
     -3.878  0.1506E+00  0.1852E+00
     -3.769  0.1210E+00  0.1985E+00
     -3.659  0.1419E+00  0.2140E+00
     -3.550  0.2904E+00  0.2457E+00
     -3.441  0.1824E+00  0.2656E+00
     -3.332  0.1865E+00  0.2860E+00
     -3.222  0.2010E+00  0.3080E+00
     -3.113  0.1152E+00  0.3206E+00
     -3.004  0.3680E+00  0.3608E+00
     -2.894  0.2850E+00  0.3919E+00
     -2.785  0.2083E+00  0.4147E+00
     -2.676  0.2966E+00  0.4471E+00
     -2.567  0.3248E+00  0.4826E+00
     -2.457  0.3811E+00  0.5243E+00
     -2.348  0.4279E+00  0.5710E+00
     -2.239  0.3753E+00  0.6120E+00
     -2.129  0.8399E+00  0.7038E+00
     -2.020  0.7224E+00  0.7828E+00
     -1.911  0.1079E+01  0.9007E+00
     -1.802  0.1510E+01  0.1066E+01
     -1.692  0.1654E+01  0.1246E+01
     -1.583  0.1825E+01  0.1446E+01
     -1.474  0.2721E+01  0.1743E+01
     -1.364  0.3402E+01  0.2115E+01
     -1.255  0.3246E+01  0.2470E+01
     -1.146  0.3244E+01  0.2824E+01
     -1.036  0.3481E+01  0.3205E+01
     -0.927  0.4329E+01  0.3678E+01
     -0.818  0.5077E+01  0.4233E+01
     -0.709  0.6231E+01  0.4914E+01
     -0.599  0.7171E+01  0.5698E+01
     -0.490  0.5270E+01  0.6274E+01
     -0.381  0.4348E+01  0.6749E+01
     -0.271  0.5527E+01  0.7353E+01
     -0.162  0.5956E+01  0.8004E+01
     -0.053  0.5280E+01  0.8581E+01
      0.056  0.6122E+01  0.9250E+01
      0.166  0.8060E+01  0.1013E+02
      0.275  0.3122E+01  0.1047E+02
      0.384  0.4536E+00  0.1052E+02
      0.494  0.6701E+00  0.1059E+02
      0.603  0.3230E+00  0.1063E+02
      0.712  0.3586E+00  0.1067E+02
      0.821  0.6357E+00  0.1074E+02
      0.931  0.3594E+00  0.1078E+02
      1.040  0.2032E+00  0.1080E+02
      1.149  0.3130E+00  0.1083E+02
      1.259  0.5545E+00  0.1089E+02
      1.368  0.4063E+00  0.1094E+02
      1.477  0.2894E+00  0.1097E+02
      1.586  0.3361E+00  0.1101E+02
      1.696  0.2498E+00  0.1104E+02
      1.805  0.4060E+00  0.1108E+02
      1.914  0.4428E+00  0.1113E+02
      2.024  0.3008E+00  0.1116E+02
      2.133  0.4657E+00  0.1121E+02
      2.242  0.1095E+00  0.1122E+02
      2.352  0.1792E+00  0.1124E+02
      2.461  0.3387E+00  0.1128E+02
      2.570  0.5629E+00  0.1134E+02
      2.679  0.3429E+00  0.1138E+02
      2.789  0.2035E+00  0.1140E+02
      2.898  0.2800E+00  0.1143E+02
      3.007  0.2962E+00  0.1146E+02
      3.117  0.1333E+00  0.1148E+02
      3.226  0.3252E+00  0.1151E+02
      3.335  0.2848E+00  0.1155E+02
      3.444  0.3575E+00  0.1158E+02
      3.554  0.3500E+00  0.1162E+02
      3.663  0.2567E+00  0.1165E+02
      3.772  0.2678E+00  0.1168E+02
      3.882  0.9680E-01  0.1169E+02
      3.991  0.2639E+00  0.1172E+02
      4.100  0.1736E+00  0.1174E+02
      4.209  0.5324E+00  0.1180E+02
      4.319  0.3015E+00  0.1183E+02
      4.428  0.3021E+00  0.1186E+02
      4.537  0.4240E+00  0.1191E+02
      4.647  0.4035E+00  0.1195E+02
      4.756  0.3355E+00  0.1199E+02
      4.865  0.3551E+00  0.1203E+02
      4.974  0.2054E+00  0.1205E+02
      5.084  0.2120E+00  0.1207E+02
      5.193  0.4790E+00  0.1213E+02
      5.302  0.3359E+00  0.1216E+02
      5.412  0.4365E+00  0.1221E+02
      5.521  0.3051E+00  0.1224E+02
      5.630  0.1916E+00  0.1227E+02
      5.740  0.3909E+00  0.1231E+02
      5.849  0.4761E+00  0.1236E+02
      5.958  0.9421E-01  0.1237E+02
      6.067  0.1781E+00  0.1239E+02
      6.177  0.3115E+00  0.1242E+02
      6.286  0.4676E+00  0.1248E+02
      6.395  0.2695E+00  0.1250E+02
      6.505  0.2311E+00  0.1253E+02
      6.614  0.4190E+00  0.1258E+02
      6.723  0.2529E+00  0.1260E+02
      6.832  0.1624E+00  0.1262E+02
      6.942  0.1973E+00  0.1264E+02
      7.051  0.5326E+00  0.1270E+02
      7.160  0.4978E+00  0.1276E+02
      7.270  0.3356E+00  0.1279E+02
      7.379  0.3624E+00  0.1283E+02
      7.488  0.4430E+00  0.1288E+02
      7.597  0.1383E+00  0.1289E+02
      7.707  0.4295E+00  0.1294E+02
      7.816  0.4723E+00  0.1299E+02
      7.925  0.2699E+00  0.1302E+02
      8.035  0.5815E+00  0.1309E+02
      8.144  0.3073E+00  0.1312E+02
      8.253  0.3478E+00  0.1316E+02
      8.362  0.4142E+00  0.1320E+02
      8.472  0.7599E+00  0.1329E+02
      8.581  0.1676E+00  0.1330E+02
      8.690  0.3969E+00  0.1335E+02
      8.800  0.2145E+00  0.1337E+02
      8.909  0.3707E+00  0.1341E+02
      9.018  0.6286E+00  0.1348E+02
      9.128  0.5655E+00  0.1354E+02
      9.237  0.4375E+00  0.1359E+02
      9.346  0.3678E+00  0.1363E+02
      9.455  0.2760E+00  0.1366E+02
      9.565  0.3677E+00  0.1370E+02
      9.674  0.2920E+00  0.1373E+02
      9.783  0.3155E+00  0.1377E+02
      9.893  0.3811E+00  0.1381E+02
     10.002  0.7751E+00  0.1389E+02
     10.111  0.5673E+00  0.1396E+02
     10.220  0.4619E+00  0.1401E+02
     10.330  0.1214E+00  0.1402E+02
     10.439  0.5539E+00  0.1408E+02
     10.548  0.6431E+00  0.1415E+02
     10.658  0.2957E+00  0.1418E+02
     10.767  0.4233E+00  0.1423E+02
     10.876  0.5197E+00  0.1429E+02
     10.985  0.2881E+00  0.1432E+02
     11.095  0.5857E+00  0.1438E+02
     11.204  0.2976E+00  0.1441E+02
     11.313  0.5352E+00  0.1447E+02
     11.423  0.4213E+00  0.1452E+02
     11.532  0.3313E+00  0.1455E+02
     11.641  0.5665E+00  0.1462E+02
     11.750  0.6718E+00  0.1469E+02
     11.860  0.3850E+00  0.1473E+02
     11.969  0.4514E+00  0.1478E+02
     12.078  0.4393E+00  0.1483E+02
     12.188  0.4317E+00  0.1488E+02
     12.297  0.5970E+00  0.1494E+02
     12.406  0.4385E+00  0.1499E+02
     12.516  0.7398E+00  0.1507E+02
     12.625  0.5969E+00  0.1514E+02
     12.734  0.3756E+00  0.1518E+02
     12.843  0.5426E+00  0.1524E+02
     12.953  0.6521E+00  0.1531E+02
     13.062  0.5077E+00  0.1536E+02
     13.171  0.4809E+00  0.1542E+02
     13.281  0.4010E+00  0.1546E+02
     13.390  0.3961E+00  0.1550E+02
     13.499  0.5591E+00  0.1556E+02
     13.608  0.5184E+00  0.1562E+02
     13.718  0.5101E+00  0.1568E+02
     13.827  0.4968E+00  0.1573E+02
     13.936  0.3422E+00  0.1577E+02
     14.046  0.5375E+00  0.1583E+02
     14.155  0.6829E+00  0.1590E+02
     14.264  0.5430E+00  0.1596E+02
     14.373  0.2616E+00  0.1599E+02
     14.483  0.5031E+00  0.1604E+02
     14.592  0.3741E+00  0.1608E+02
     14.701  0.5671E+00  0.1615E+02
     14.811  0.3625E+00  0.1619E+02
     14.920  0.4180E+00  0.1623E+02
     15.029  0.5275E+00  0.1629E+02
     15.138  0.5456E+00  0.1635E+02
     15.248  0.2957E+00  0.1638E+02
     15.357  0.3138E+00  0.1642E+02
     15.466  0.3816E+00  0.1646E+02
     15.576  0.4838E+00  0.1651E+02
     15.685  0.1355E+00  0.1653E+02
     15.794  0.2856E+00  0.1656E+02
     15.903  0.2256E+00  0.1658E+02
     16.013  0.6223E+00  0.1665E+02
     16.122  0.5955E+00  0.1671E+02
     16.231  0.3955E+00  0.1676E+02
     16.341  0.3013E+00  0.1679E+02
     16.450  0.2975E+00  0.1682E+02
     16.559  0.3446E+00  0.1686E+02
     16.669  0.6078E+00  0.1693E+02
     16.778  0.3973E+00  0.1697E+02
     16.887  0.1192E+00  0.1698E+02
     16.996  0.4216E+00  0.1703E+02
     17.106  0.2544E+00  0.1706E+02
     17.215  0.4334E+00  0.1710E+02
     17.324  0.2970E+00  0.1714E+02
     17.434  0.4694E+00  0.1719E+02
     17.543  0.7440E+00  0.1727E+02
     17.652  0.5757E+00  0.1733E+02
     17.761  0.4222E+00  0.1738E+02
     17.871  0.4596E+00  0.1743E+02
     17.980  0.4797E+00  0.1748E+02
     18.089  0.4687E+00  0.1753E+02
     18.199  0.2560E+00  0.1756E+02
     18.308  0.5692E+00  0.1762E+02
     18.417  0.4545E+00  0.1767E+02
     18.526  0.4732E+00  0.1772E+02
     18.636  0.5772E+00  0.1779E+02
     18.745  0.5489E+00  0.1785E+02
     18.854  0.7901E+00  0.1793E+02
     18.964  0.4733E+00  0.1799E+02
     19.073  0.5337E+00  0.1804E+02
     19.182  0.6426E+00  0.1811E+02
     19.291  0.5847E+00  0.1818E+02
     19.401  0.6054E+00  0.1824E+02
     19.510  0.6252E+00  0.1831E+02
     19.619  0.4984E+00  0.1837E+02
     19.729  0.5178E+00  0.1842E+02
     19.838  0.6122E+00  0.1849E+02
     19.947  0.5892E+00  0.1855E+02
     20.057  0.4901E+00  0.1861E+02
     20.166  0.4218E+00  0.1865E+02
     20.275  0.5239E+00  0.1871E+02
     20.384  0.3027E+00  0.1874E+02
     20.494  0.4553E+00  0.1879E+02
     20.603  0.9410E+00  0.1890E+02
     20.712  0.8367E+00  0.1899E+02
     20.822  0.6357E+00  0.1906E+02
     20.931  0.6024E+00  0.1912E+02
     21.040  0.6666E+00  0.1920E+02
     21.149  0.9377E+00  0.1930E+02
     21.259  0.3071E+00  0.1933E+02
     21.368  0.1435E+00  0.1935E+02
     21.477  0.4952E+00  0.1940E+02
     21.587  0.3984E+00  0.1945E+02
     21.696  0.6574E+00  0.1952E+02
     21.805  0.4760E+00  0.1957E+02
     21.914  0.1678E+00  0.1959E+02
     22.024  0.2346E+00  0.1961E+02
     22.133  0.2272E+00  0.1964E+02
     22.242  0.2560E+00  0.1967E+02
     22.352  0.6045E+00  0.1973E+02
     22.461  0.3663E+00  0.1977E+02
     22.570  0.2539E+00  0.1980E+02
     22.679  0.3148E+00  0.1984E+02
     22.789  0.4736E+00  0.1989E+02
     22.898  0.3679E+00  0.1993E+02
     23.007  0.1812E+00  0.1995E+02
     23.117  0.3927E-01  0.1995E+02
     23.226  0.6248E-01  0.1996E+02
     23.335  0.1099E+00  0.1997E+02
     23.445  0.1811E-01  0.1997E+02
     23.554  0.7856E-05  0.1997E+02
     23.663  0.4546E-12  0.1997E+02
     23.772  0.7275E-06  0.1997E+02
     23.882  0.1237E-01  0.1997E+02
     23.991  0.1101E+00  0.1999E+02
     24.100  0.2120E-01  0.1999E+02
     24.210  0.1074E+00  0.2000E+02
     24.319  0.3124E-02  0.2000E+02
     24.428  0.2688E-07  0.2000E+02
     24.537  0.2822E-16  0.2000E+02
     24.647  0.0000E+00  0.2000E+02
     24.756  0.0000E+00  0.2000E+02
     24.865  0.0000E+00  0.2000E+02
     24.975  0.0000E+00  0.2000E+02
     25.084  0.0000E+00  0.2000E+02
     25.193  0.0000E+00  0.2000E+02
     25.302  0.0000E+00  0.2000E+02
     25.412  0.0000E+00  0.2000E+02
     25.521  0.0000E+00  0.2000E+02
     25.630  0.0000E+00  0.2000E+02
