    1    1    1    1
  0.1600000E+02  0.2828427E-09  0.2828427E-09  0.2828427E-09  0.5000000E-15
  1.000000000000000E-004
  CAR 
 fcc Cu                                  
     11    182     10
 
  0.4166667E-01  0.4166667E-01  0.4166667E-01  0.1157407E-02
      1         -5.666420   1.000000
      2         -0.746725   1.000000
      3         -0.731104   1.000000
      4         -0.731103   1.000000
      5         -0.224934   1.000000
      6         -0.224934   1.000000
      7         21.040676   0.000000
      8         22.034952   0.000000
      9         22.034954   0.000000
     10         22.050099   0.000000
 
  0.1250000E+00  0.4166667E-01  0.4166667E-01  0.3472222E-02
      1         -5.395982   1.000000
      2         -0.789389   1.000000
      3         -0.695238   1.000000
      4         -0.687582   1.000000
      5         -0.257001   1.000000
      6         -0.215787   1.000000
      7         18.568472   0.000000
      8         19.982341   0.000000
      9         22.339937   0.000000
     10         22.354182   0.000000
 
  0.2083333E+00  0.4166667E-01  0.4166667E-01  0.3472222E-02
      1         -4.737210   1.000000
      2         -0.860129   1.000000
      3         -0.635954   1.000000
      4         -0.632750   1.000000
      5         -0.273435   1.000000
      6         -0.186650   1.000000
      7         14.756154   0.000000
      8         19.109755   0.000000
      9         21.712840   0.000000
     10         22.263977   0.000000
 
  0.2916667E+00  0.4166667E-01  0.4166667E-01  0.3472222E-02
      1         -3.760531   1.000000
      2         -0.875240   1.000000
      3         -0.641856   1.000000
      4         -0.629396   1.000000
      5         -0.196286   1.000000
      6         -0.082630   1.000000
      7         11.186483   0.000000
      8         18.528158   0.000000
      9         20.983574   0.000000
     10         21.777217   0.000000
 
  0.3750000E+00  0.4166667E-01  0.4166667E-01  0.3472222E-02
      1         -2.727275   1.000000
      2         -0.697658   1.000000
      3         -0.681047   1.000000
      4         -0.593003   1.000000
      5         -0.048980   1.000000
      6          0.090819   1.000000
      7          7.965871   0.000000
      8         18.268337   0.000000
      9         20.248791   0.000000
     10         21.106036   0.000000
 
  0.4583333E+00  0.4166667E-01  0.4166667E-01  0.3472222E-02
      1         -2.184344   1.000000
      2         -0.745381   1.000000
      3         -0.726477   1.000000
      4         -0.024923   1.000000
      5          0.080029   1.000000
      6          0.717996   1.000000
      7          5.236744   0.000000
      8         18.353937   0.000000
      9         19.522252   0.000000
     10         20.519014   0.000000
 
 -0.4583333E+00  0.4166667E-01  0.4166667E-01  0.3472222E-02
      1         -2.094574   1.000000
      2         -0.762083   1.000000
      3         -0.736980   1.000000
      4          0.037703   1.000000
      5          0.134106   1.000000
      6          1.459262   0.997842
      7          4.078604   0.000000
      8         18.782926   0.000000
      9         18.957749   0.000000
     10         20.185439   0.000000
 
 -0.3750000E+00  0.4166667E-01  0.4166667E-01  0.3472222E-02
      1         -2.295887   1.000000
      2         -0.736869   1.000000
      3         -0.708784   1.000000
      4         -0.181387   1.000000
      5          0.095549   1.000000
      6          0.348065   1.000000
      7          6.070717   0.000000
      8         18.690381   0.000000
      9         19.421933   0.000000
     10         20.271892   0.000000
 
 -0.2916667E+00  0.4166667E-01  0.4166667E-01  0.3472222E-02
      1         -3.044621   1.000000
      2         -0.752763   1.000000
      3         -0.679342   1.000000
      4         -0.657839   1.000000
      5         -0.054845   1.000000
      6         -0.015410   1.000000
      7          8.994832   0.000000
      8         18.765936   0.000000
      9         19.878860   0.000000
     10         21.087882   0.000000
 
 -0.2083333E+00  0.4166667E-01  0.4166667E-01  0.3472222E-02
      1         -4.112262   1.000000
      2         -0.888153   1.000000
      3         -0.630172   1.000000
      4         -0.621999   1.000000
      5         -0.220806   1.000000
      6         -0.138098   1.000000
      7         12.342294   0.000000
      8         19.183906   0.000000
      9         20.302549   0.000000
     10         22.198824   0.000000
 
 -0.1250000E+00  0.4166667E-01  0.4166667E-01  0.3472222E-02
      1         -4.997324   1.000000
      2         -0.839995   1.000000
      3         -0.649435   1.000000
      4         -0.646985   1.000000
      5         -0.276307   1.000000
      6         -0.202328   1.000000
      7         16.006742   0.000000
      8         19.921518   0.000000
      9         20.846986   0.000000
     10         22.746377   0.000000
 
 -0.4166667E-01  0.4166667E-01  0.4166667E-01  0.3472222E-02
      1         -5.530739   1.000000
      2         -0.773968   1.000000
      3         -0.708034   1.000000
      4         -0.706606   1.000000
      5         -0.251230   1.000000
      6         -0.212690   1.000000
      7         19.844703   0.000000
      8         20.935511   0.000000
      9         21.457465   0.000000
     10         22.238884   0.000000
 
  0.1250000E+00  0.1250000E+00  0.4166667E-01  0.3472222E-02
      1         -5.261553   1.000000
      2         -0.830243   1.000000
      3         -0.659013   1.000000
      4         -0.658162   1.000000
      5         -0.300140   1.000000
      6         -0.189008   1.000000
      7         18.640023   0.000000
      8         19.647873   0.000000
      9         20.650285   0.000000
     10         21.681006   0.000000
 
  0.2083333E+00  0.1250000E+00  0.4166667E-01  0.6944444E-02
      1         -4.734447   1.000000
      2         -0.909683   1.000000
      3         -0.602936   1.000000
      4         -0.585592   1.000000
      5         -0.341963   1.000000
      6         -0.150010   1.000000
      7         16.207809   0.000000
      8         17.630140   0.000000
      9         20.855420   0.000000
     10         22.211175   0.000000
 
  0.2916667E+00  0.1250000E+00  0.4166667E-01  0.6944444E-02
      1         -3.863354   1.000000
      2         -0.974103   1.000000
      3         -0.632272   1.000000
      4         -0.549016   1.000000
      5         -0.252280   1.000000
      6         -0.050237   1.000000
      7         12.568218   0.000000
      8         16.927928   0.000000
      9         20.337721   0.000000
     10         20.900680   0.000000
 
  0.3750000E+00  0.1250000E+00  0.4166667E-01  0.6944444E-02
      1         -2.825218   1.000000
      2         -0.906433   1.000000
      3         -0.721329   1.000000
      4         -0.582137   1.000000
      5         -0.043405   1.000000
      6          0.167555   1.000000
      7          9.224293   0.000000
      8         16.593918   0.000000
      9         19.058546   0.000000
     10         20.031076   0.000000
 
  0.4583333E+00  0.1250000E+00  0.4166667E-01  0.6944444E-02
      1         -2.126026   1.000000
      2         -0.800993   1.000000
      3         -0.637501   1.000000
      4         -0.538536   1.000000
      5          0.096546   1.000000
      6          0.838553   1.000000
      7          6.284138   0.000000
      8         16.652487   0.000000
      9         17.626012   0.000000
     10         19.927689   0.000000
 
 -0.4583333E+00  0.1250000E+00  0.4166667E-01  0.6944444E-02
      1         -1.949673   1.000000
      2         -0.831742   1.000000
      3         -0.663167   1.000000
      4         -0.293809   1.000000
      5          0.125574   1.000000
      6          2.062048   0.000000
      7          4.191848   0.000000
      8         16.544784   0.000000
      9         17.177222   0.000000
     10         20.079120   0.000000
 
 -0.3750000E+00  0.1250000E+00  0.4166667E-01  0.6944444E-02
      1         -2.025589   1.000000
      2         -0.809395   1.000000
      3         -0.655164   1.000000
      4         -0.390519   1.000000
      5          0.064429   1.000000
      6          1.260181   1.000000
      7          5.434853   0.000000
      8         15.933045   0.000000
      9         18.072524   0.000000
     10         20.484621   0.000000
 
 -0.2916667E+00  0.1250000E+00  0.4166667E-01  0.6944444E-02
      1         -2.520776   1.000000
      2         -0.791281   1.000000
      3         -0.740548   1.000000
      4         -0.607197   1.000000
      5         -0.081762   1.000000
      6          0.378923   1.000000
      7          8.198097   0.000000
      8         15.723436   0.000000
      9         19.385654   0.000000
     10         21.082476   0.000000
 
 -0.2083333E+00  0.1250000E+00  0.4166667E-01  0.6944444E-02
      1         -3.518546   1.000000
      2         -0.957024   1.000000
      3         -0.661175   1.000000
      4         -0.556681   1.000000
      5         -0.260013   1.000000
      6          0.057277   1.000000
      7         11.421938   0.000000
      8         15.909573   0.000000
      9         21.062651   0.000000
     10         21.749121   0.000000
 
 -0.1250000E+00  0.1250000E+00  0.4166667E-01  0.6944444E-02
      1         -4.478405   1.000000
      2         -0.917571   1.000000
      3         -0.617721   1.000000
      4         -0.572663   1.000000
      5         -0.339419   1.000000
      6         -0.112947   1.000000
      7         14.977045   0.000000
      8         16.470477   0.000000
      9         22.302863   0.000000
     10         22.988244   0.000000
 
 -0.4166667E-01  0.1250000E+00  0.4166667E-01  0.6944444E-02
      1         -5.128762   1.000000
      2         -0.836332   1.000000
      3         -0.653512   1.000000
      4         -0.650178   1.000000
      5         -0.294885   1.000000
      6         -0.191630   1.000000
      7         17.347070   0.000000
      8         18.785613   0.000000
      9         21.690022   0.000000
     10         22.688565   0.000000
 
  0.2083333E+00  0.2083333E+00  0.4166667E-01  0.3472222E-02
      1         -4.348362   1.000000
      2         -1.006993   1.000000
      3         -0.521085   1.000000
      4         -0.495789   1.000000
      5         -0.404083   1.000000
      6         -0.113848   1.000000
      7         16.404449   0.000000
      8         17.213902   0.000000
      9         19.111369   0.000000
     10         20.196710   0.000000
 
  0.2916667E+00  0.2083333E+00  0.4166667E-01  0.6944444E-02
      1         -3.618909   1.000000
      2         -1.103622   1.000000
      3         -0.595314   1.000000
      4         -0.398186   1.000000
      5         -0.273769   1.000000
      6         -0.034199   1.000000
      7         14.208935   0.000000
      8         15.555162   0.000000
      9         18.306039   0.000000
     10         19.370050   0.000000
 
  0.3750000E+00  0.2083333E+00  0.4166667E-01  0.6944444E-02
      1         -2.683586   1.000000
      2         -1.145759   1.000000
      3         -0.720026   1.000000
      4         -0.401003   1.000000
      5         -0.011448   1.000000
      6          0.220705   1.000000
      7         10.817050   0.000000
      8         15.081193   0.000000
      9         16.372118   0.000000
     10         19.095705   0.000000
 
  0.4583333E+00  0.2083333E+00  0.4166667E-01  0.6944444E-02
      1         -1.941258   1.000000
      2         -1.054120   1.000000
      3         -0.787428   1.000000
      4         -0.447641   1.000000
      5          0.116476   1.000000
      6          1.032485   1.000000
      7          7.730613   0.000000
      8         14.742567   0.000000
      9         15.091345   0.000000
     10         19.041893   0.000000
 
 -0.4583333E+00  0.2083333E+00  0.4166667E-01  0.6944444E-02
      1         -1.696227   1.000000
      2         -0.992461   1.000000
      3         -0.665945   1.000000
      4         -0.493750   1.000000
      5          0.131641   1.000000
      6          2.541022   0.000000
      7          5.114683   0.000000
      8         13.571349   0.000000
      9         15.470048   0.000000
     10         19.275102   0.000000
 
 -0.3750000E+00  0.2083333E+00  0.4166667E-01  0.6944444E-02
      1         -1.677931   1.000000
      2         -0.961917   1.000000
      3         -0.651247   1.000000
      4         -0.512225   1.000000
      5          0.049827   1.000000
      6          2.564858   0.000000
      7          5.130639   0.000000
      8         12.770971   0.000000
      9         16.318129   0.000000
     10         19.834165   0.000000
 
 -0.2916667E+00  0.2083333E+00  0.4166667E-01  0.6944444E-02
      1         -1.899793   1.000000
      2         -0.891819   1.000000
      3         -0.875191   1.000000
      4         -0.486729   1.000000
      5         -0.107345   1.000000
      6          1.159735   1.000000
      7          7.761372   0.000000
      8         12.384469   0.000000
      9         17.573368   0.000000
     10         20.752070   0.000000
 
 -0.2083333E+00  0.2083333E+00  0.4166667E-01  0.6944444E-02
      1         -2.667405   1.000000
      2         -1.035706   1.000000
      3         -0.759148   1.000000
      4         -0.431577   1.000000
      5         -0.303497   1.000000
      6          0.439147   1.000000
      7         10.852572   0.000000
      8         12.419186   0.000000
      9         19.185344   0.000000
     10         22.009084   0.000000
 
 -0.1250000E+00  0.2083333E+00  0.4166667E-01  0.6944444E-02
      1         -3.622555   1.000000
      2         -0.993130   1.000000
      3         -0.659122   1.000000
      4         -0.481712   1.000000
      5         -0.358743   1.000000
      6          0.079066   1.000000
      7         12.805081   0.000000
      8         14.329441   0.000000
      9         21.072148   0.000000
     10         22.816596   0.000000
 
 -0.4166667E-01  0.2083333E+00  0.4166667E-01  0.6944444E-02
      1         -4.354936   1.000000
      2         -0.906130   1.000000
      3         -0.622142   1.000000
      4         -0.598393   1.000000
      5         -0.286938   1.000000
      6         -0.127720   1.000000
      7         13.607912   0.000000
      8         17.989944   0.000000
      9         21.112422   0.000000
     10         22.740069   0.000000
 
  0.2916667E+00  0.2916667E+00  0.4166667E-01  0.3472222E-02
      1         -3.074710   1.000000
      2         -1.225521   1.000000
      3         -0.503219   1.000000
      4         -0.270691   1.000000
      5         -0.204037   1.000000
      6         -0.018360   1.000000
      7         14.511563   0.000000
      8         15.174300   0.000000
      9         15.921085   0.000000
     10         17.948776   0.000000
 
  0.3750000E+00  0.2916667E+00  0.4166667E-01  0.6944444E-02
      1         -2.382898   1.000000
      2         -1.311200   1.000000
      3         -0.518534   1.000000
      4         -0.169964   1.000000
      5         -0.002007   1.000000
      6          0.232175   1.000000
      7         12.615639   0.000000
      8         13.780985   0.000000
      9         13.998026   0.000000
     10         18.315005   0.000000
 
  0.4583333E+00  0.2916667E+00  0.4166667E-01  0.6944444E-02
      1         -1.827139   1.000000
      2         -1.320970   1.000000
      3         -0.601783   1.000000
      4         -0.209336   1.000000
      5          0.128109   1.000000
      6          1.209393   1.000000
      7          9.526653   0.000000
      8         12.185640   0.000000
      9         13.723988   0.000000
     10         18.281309   0.000000
 
 -0.4583333E+00  0.2916667E+00  0.4166667E-01  0.6944444E-02
      1         -1.554385   1.000000
      2         -1.245749   1.000000
      3         -0.673614   1.000000
      4         -0.270417   1.000000
      5          0.146853   1.000000
      6          2.843292   0.000000
      7          6.728727   0.000000
      8         10.863004   0.000000
      9         14.017457   0.000000
     10         18.455099   0.000000
 
 -0.3750000E+00  0.2916667E+00  0.4166667E-01  0.6944444E-02
      1         -1.426893   1.000000
      2         -1.160590   1.000000
      3         -0.760741   1.000000
      4         -0.323084   1.000000
      5          0.065686   1.000000
      6          4.218845   0.000000
      7          5.123048   0.000000
      8          9.927652   0.000000
      9         14.775921   0.000000
     10         18.918273   0.000000
 
 -0.2916667E+00  0.2916667E+00  0.4166667E-01  0.6944444E-02
      1         -1.431203   1.000000
      2         -1.049274   1.000000
      3         -0.937228   1.000000
      4         -0.351960   1.000000
      5         -0.077337   1.000000
      6          2.407747   0.000000
      7          7.605858   0.000000
      8          9.438784   0.000000
      9         15.948843   0.000000
     10         19.700319   0.000000
 
 -0.2083333E+00  0.2916667E+00  0.4166667E-01  0.6944444E-02
      1         -1.853304   1.000000
      2         -1.020243   1.000000
      3         -0.894849   1.000000
      4         -0.404269   1.000000
      5         -0.192672   1.000000
      6          1.143478   1.000000
      7          9.124212   0.000000
      8         10.775618   0.000000
      9         17.470435   0.000000
     10         20.778578   0.000000
 
 -0.1250000E+00  0.2916667E+00  0.4166667E-01  0.6944444E-02
      1         -2.613822   1.000000
      2         -0.958172   1.000000
      3         -0.752274   1.000000
      4         -0.526001   1.000000
      5         -0.194055   1.000000
      6          0.418698   1.000000
      7          9.467494   0.000000
      8         14.025108   0.000000
      9         19.255673   0.000000
     10         21.688554   0.000000
 
 -0.4166667E-01  0.2916667E+00  0.4166667E-01  0.6944444E-02
      1         -3.319324   1.000000
      2         -0.879236   1.000000
      3         -0.667540   1.000000
      4         -0.617852   1.000000
      5         -0.152222   1.000000
      6          0.017424   1.000000
      7         10.147325   0.000000
      8         17.528295   0.000000
      9         20.553952   0.000000
     10         21.167934   0.000000
 
  0.3750000E+00  0.3750000E+00  0.4166667E-01  0.3472222E-02
      1         -2.084101   1.000000
      2         -1.426687   1.000000
      3         -0.111390   1.000000
      4         -0.038733   1.000000
      5          0.077126   1.000000
      6          0.420865   1.000000
      7         11.702740   0.000000
      8         13.092849   0.000000
      9         13.649861   0.000000
     10         17.180498   0.000000
 
  0.4583333E+00  0.3750000E+00  0.4166667E-01  0.6944444E-02
      1         -1.858655   1.000000
      2         -1.476141   1.000000
      3         -0.158587   1.000000
      4          0.030091   1.000000
      5          0.129757   1.000000
      6          1.523444   0.850554
      7          9.916934   0.000000
      8         11.572910   0.000000
      9         12.757012   0.000000
     10         17.678585   0.000000
 
 -0.4583333E+00  0.3750000E+00  0.4166667E-01  0.6944444E-02
      1         -1.672477   1.000000
      2         -1.441647   1.000000
      3         -0.322699   1.000000
      4         -0.050772   1.000000
      5          0.171770   1.000000
      6          3.168882   0.000000
      7          8.438507   0.000000
      8          8.938739   0.000000
      9         12.911322   0.000000
     10         17.857013   0.000000
 
 -0.3750000E+00  0.3750000E+00  0.4166667E-01  0.6944444E-02
      1         -1.496213   1.000000
      2         -1.336293   1.000000
      3         -0.551798   1.000000
      4         -0.141120   1.000000
      5          0.113529   1.000000
      6          5.106592   0.000000
      7          6.277466   0.000000
      8          7.749250   0.000000
      9         13.556337   0.000000
     10         18.215973   0.000000
 
 -0.2916667E+00  0.3750000E+00  0.4166667E-01  0.6944444E-02
      1         -1.365180   1.000000
      2         -1.197438   1.000000
      3         -0.787886   1.000000
      4         -0.262263   1.000000
      5          0.027264   1.000000
      6          4.172529   0.000000
      7          6.271210   0.000000
      8          8.431586   0.000000
      9         14.635584   0.000000
     10         18.846864   0.000000
 
 -0.2083333E+00  0.3750000E+00  0.4166667E-01  0.6944444E-02
      1         -1.538278   1.000000
      2         -1.017492   1.000000
      3         -0.817200   1.000000
      4         -0.422929   1.000000
      5         -0.017533   1.000000
      6          2.472142   0.000000
      7          6.305153   0.000000
      8         11.012638   0.000000
      9         16.072390   0.000000
     10         19.746516   0.000000
 
 -0.1250000E+00  0.3750000E+00  0.4166667E-01  0.6944444E-02
      1         -1.964742   1.000000
      2         -0.844566   1.000000
      3         -0.671479   1.000000
      4         -0.571312   1.000000
      5         -0.014267   1.000000
      6          1.195908   1.000000
      7          6.513935   0.000000
      8         14.122836   0.000000
      9         17.776812   0.000000
     10         20.669270   0.000000
 
 -0.4166667E-01  0.3750000E+00  0.4166667E-01  0.6944444E-02
      1         -2.409445   1.000000
      2         -0.736764   1.000000
      3         -0.671649   1.000000
      4         -0.511623   1.000000
      5          0.023588   1.000000
      6          0.328072   1.000000
      7          7.062085   0.000000
      8         17.427988   0.000000
      9         19.505987   0.000000
     10         20.413802   0.000000
 
  0.4583333E+00  0.4583333E+00  0.4166667E-01  0.3472222E-02
      1         -1.874463   1.000000
      2         -1.557916   1.000000
      3          0.093956   1.000000
      4          0.131689   1.000000
      5          0.178661   1.000000
      6          2.302151   0.000000
      7          8.162069   0.000000
      8         12.234384   0.000000
      9         12.749243   0.000000
     10         16.767890   0.000000
 
 -0.4583333E+00  0.4583333E+00  0.4166667E-01  0.6944444E-02
      1         -1.812112   1.000000
      2         -1.555221   1.000000
      3          0.032580   1.000000
      4          0.083652   1.000000
      5          0.209932   1.000000
      6          3.458510   0.000000
      7          7.045571   0.000000
      8         11.073901   0.000000
      9         12.238828   0.000000
     10         17.412962   0.000000
 
 -0.3750000E+00  0.4583333E+00  0.4166667E-01  0.6944444E-02
      1         -1.671634   1.000000
      2         -1.466894   1.000000
      3         -0.252522   1.000000
      4         -0.015471   1.000000
      5          0.175792   1.000000
      6          4.145422   0.000000
      7          7.264776   0.000000
      8          8.677568   0.000000
      9         12.744540   0.000000
     10         17.775061   0.000000
 
 -0.2916667E+00  0.4583333E+00  0.4166667E-01  0.6944444E-02
      1         -1.506794   1.000000
      2         -1.307404   1.000000
      3         -0.597821   1.000000
      4         -0.191414   1.000000
      5          0.131959   1.000000
      6          4.002681   0.000000
      7          6.430067   0.000000
      8          9.133992   0.000000
      9         13.711155   0.000000
     10         18.295695   0.000000
 
 -0.2083333E+00  0.4583333E+00  0.4166667E-01  0.6944444E-02
      1         -1.541041   1.000000
      2         -1.088489   1.000000
      3         -0.717319   1.000000
      4         -0.407881   1.000000
      5          0.107129   1.000000
      6          3.601173   0.000000
      7          4.769621   0.000000
      8         11.683000   0.000000
      9         15.054935   0.000000
     10         19.059631   0.000000
 
 -0.1250000E+00  0.4583333E+00  0.4166667E-01  0.6944444E-02
      1         -1.818211   1.000000
      2         -0.895691   1.000000
      3         -0.596238   1.000000
      4         -0.471308   1.000000
      5          0.100829   1.000000
      6          2.525618   0.000000
      7          4.320257   0.000000
      8         14.633305   0.000000
      9         16.684343   0.000000
     10         19.952019   0.000000
 
 -0.4166667E-01  0.4583333E+00  0.4166667E-01  0.6944444E-02
      1         -2.070747   1.000000
      2         -0.779890   1.000000
      3         -0.707830   1.000000
      4         -0.131865   1.000000
      5          0.117495   1.000000
      6          1.359527   1.000000
      7          4.584119   0.000000
      8         17.708424   0.000000
      9         18.445426   0.000000
     10         20.211275   0.000000
 
 -0.4583333E+00 -0.4583333E+00  0.4166667E-01  0.3472222E-02
      1         -1.865250   1.000000
      2         -1.585900   1.000000
      3          0.112969   1.000000
      4          0.178008   1.000000
      5          0.212103   1.000000
      6          3.194969   0.000000
      7          6.973809   0.000000
      8         12.056959   0.000000
      9         12.563487   0.000000
     10         16.687166   0.000000
 
 -0.3750000E+00 -0.4583333E+00  0.4166667E-01  0.6944444E-02
      1         -1.818223   1.000000
      2         -1.528307   1.000000
      3         -0.038174   1.000000
      4          0.077090   1.000000
      5          0.178158   1.000000
      6          2.551108   0.000000
      7          8.254948   0.000000
      8         11.241158   0.000000
      9         12.413393   0.000000
     10         17.500426   0.000000
 
 -0.2916667E+00 -0.4583333E+00  0.4166667E-01  0.6944444E-02
      1         -1.700989   1.000000
      2         -1.391853   1.000000
      3         -0.449805   1.000000
      4         -0.118982   1.000000
      5          0.158038   1.000000
      6          2.100897   0.000000
      7          9.057077   0.000000
      8         10.320780   0.000000
      9         13.239946   0.000000
     10         18.023998   0.000000
 
 -0.2083333E+00 -0.4583333E+00  0.4166667E-01  0.6944444E-02
      1         -1.682983   1.000000
      2         -1.156212   1.000000
      3         -0.748251   1.000000
      4         -0.359873   1.000000
      5          0.144083   1.000000
      6          1.830779   0.000000
      7          7.165051   0.000000
      8         12.754837   0.000000
      9         14.471562   0.000000
     10         18.701825   0.000000
 
 -0.1250000E+00 -0.4583333E+00  0.4166667E-01  0.6944444E-02
      1         -1.889617   1.000000
      2         -0.890254   1.000000
      3         -0.615510   1.000000
      4         -0.562078   1.000000
      5          0.129778   1.000000
      6          1.596025   0.155270
      7          5.632708   0.000000
      8         15.541217   0.000000
      9         16.031562   0.000000
     10         19.564444   0.000000
 
 -0.3750000E+00 -0.3750000E+00  0.4166667E-01  0.3472222E-02
      1         -1.921783   1.000000
      2         -1.503693   1.000000
      3          0.039661   1.000000
      4          0.047005   1.000000
      5          0.126844   1.000000
      6          1.263343   1.000000
      7          9.821998   0.000000
      8         12.583078   0.000000
      9         13.114900   0.000000
     10         16.931398   0.000000
 
 -0.2916667E+00 -0.3750000E+00  0.4166667E-01  0.6944444E-02
      1         -2.009247   1.000000
      2         -1.402170   1.000000
      3         -0.334944   1.000000
      4         -0.058567   1.000000
      5          0.075385   1.000000
      6          0.703338   1.000000
      7         11.725890   0.000000
      8         12.118289   0.000000
      9         13.261014   0.000000
     10         17.947457   0.000000
 
 -0.2083333E+00 -0.3750000E+00  0.4166667E-01  0.6944444E-02
      1         -2.154576   1.000000
      2         -1.236170   1.000000
      3         -0.707023   1.000000
      4         -0.307106   1.000000
      5          0.075826   1.000000
      6          0.585598   1.000000
      7         10.112283   0.000000
      8         14.154264   0.000000
      9         14.401861   0.000000
     10         18.635717   0.000000
 
 -0.1250000E+00 -0.3750000E+00  0.4166667E-01  0.6944444E-02
      1         -2.339600   1.000000
      2         -0.963600   1.000000
      3         -0.775073   1.000000
      4         -0.523925   1.000000
      5          0.057783   1.000000
      6          0.480414   1.000000
      7          8.418341   0.000000
      8         15.756917   0.000000
      9         16.908325   0.000000
     10         19.480677   0.000000
 
 -0.2916667E+00 -0.2916667E+00  0.4166667E-01  0.3472222E-02
      1         -2.473300   1.000000
      2         -1.331826   1.000000
      3         -0.350376   1.000000
      4         -0.150044   1.000000
      5         -0.014202   1.000000
      6          0.030562   1.000000
      7         13.647115   0.000000
      8         13.838667   0.000000
      9         14.341700   0.000000
     10         17.519325   0.000000
 
 -0.2083333E+00 -0.2916667E+00  0.4166667E-01  0.6944444E-02
      1         -2.969067   1.000000
      2         -1.209393   1.000000
      3         -0.601938   1.000000
      4         -0.286651   1.000000
      5         -0.137726   1.000000
      6          0.047785   1.000000
      7         13.359998   0.000000
      8         14.661184   0.000000
      9         16.041435   0.000000
     10         18.786480   0.000000
 
 -0.1250000E+00 -0.2916667E+00  0.4166667E-01  0.6944444E-02
      1         -3.288249   1.000000
      2         -1.056384   1.000000
      3         -0.677442   1.000000
      4         -0.483075   1.000000
      5         -0.144714   1.000000
      6          0.047193   1.000000
      7         11.636491   0.000000
      8         15.953749   0.000000