       N       E                     dE             d eps       ncg     rms          rms(c)
DAV:   1    -0.369173270314E+03   -0.36917E+03   -0.94944E+03  3640   0.195E+03
DAV:   2    -0.400379615791E+03   -0.31206E+02   -0.30606E+02  3980   0.226E+02
DAV:   3    -0.400859679590E+03   -0.48006E+00   -0.47959E+00  4062   0.245E+01
DAV:   4    -0.400871141922E+03   -0.11462E-01   -0.11461E-01  4066   0.459E+00
DAV:   5    -0.400871663833E+03   -0.52191E-03   -0.52191E-03  4458   0.943E-01    0.687E+01
DAV:   6    -0.788301096045E+02    0.32204E+03   -0.18728E+02  3944   0.138E+02    0.356E+01
DAV:   7    -0.676321090100E+02    0.11198E+02   -0.10673E+03  4058   0.259E+02    0.583E+01
DAV:   8    -0.223728422222E+03   -0.15610E+03   -0.38457E+03  3656   0.130E+03    0.532E+01
DAV:   9    -0.741694015450E+02    0.14956E+03   -0.13544E+02  3784   0.120E+02    0.357E+01
DAV:  10    -0.292216455975E+02    0.44948E+02   -0.30166E+01  4030   0.703E+01    0.246E+01
DAV:  11    -0.286145294202E+02    0.60712E+00   -0.58754E-01  3834   0.576E+00    0.243E+01
DAV:  12    -0.275801911122E+02    0.10343E+01   -0.26479E-02  4004   0.225E+00    0.237E+01
DAV:  13    -0.492686266216E+01    0.22653E+02   -0.12983E+02  4012   0.128E+02    0.935E+00
DAV:  14    -0.467784134370E+01    0.24902E+00   -0.42667E+01  4006   0.938E+01    0.691E+00
DAV:  15    -0.386894287667E+01    0.80890E+00   -0.19328E+01  4040   0.617E+01    0.527E+00
DAV:  16    -0.359757329531E+01    0.27137E+00   -0.93809E+00  4018   0.430E+01    0.285E+00
DAV:  17    -0.343809806963E+01    0.15948E+00   -0.22858E+00  3998   0.214E+01    0.140E+00
DAV:  18    -0.342442466750E+01    0.13673E-01   -0.40988E-01  3972   0.902E+00    0.526E-01
DAV:  19    -0.343729390875E+01   -0.12869E-01   -0.30233E-01  3954   0.765E+00    0.100E+00
DAV:  20    -0.342490438525E+01    0.12390E-01   -0.27407E-02  3992   0.229E+00    0.535E-01
DAV:  21    -0.342263323283E+01    0.22712E-02   -0.24172E-03  4096   0.626E-01    0.373E-01
DAV:  22    -0.342003482191E+01    0.25984E-02   -0.11216E-02  4066   0.144E+00    0.812E-02
DAV:  23    -0.341994948770E+01    0.85334E-04   -0.15550E-04  1958   0.161E-01
   1 F= -.34199495E+01 E0= -.34197715E+01  d E =-.355887E-03
