 vasp.6.3.0 20Jan22 (build Sep 29 2023 15:57:01) complex                        
  
 executed on             LinuxIFC date 2023.11.06  17:45:16
 running on    2 total cores
 distrk:  each k-point on    2 cores,    1 groups
 distr:  one band on NCORE=   1 cores,    2 groups


--------------------------------------------------------------------------------------------------------


 INCAR:
   SYSTEM = fcc Cu
   ISTART = 0
   ICHARG = 0
   ENCUT = 292
   ISMEAR = 0
   SIGMA = 0.05
   GGA = 91

 POTCAR:   PAW_GGA Cu 05Jan2001                   
 POTCAR:   PAW_GGA Cu 05Jan2001                   
   VRHFIN =Cu: d10 p1                                                                               
   LEXCH  = 91                                                                                      
   EATOM  =  1393.0707 eV,  102.3878 Ry                                                             
                                                                                                    
   TITEL  = PAW_GGA Cu 05Jan2001                                                                    
   LULTRA =        F    use ultrasoft PP ?                                                          
   IUNSCR =        1    unscreen: 0-lin 1-nonlin 2-no                                               
   RPACOR =    2.000    partial core radius                                                         
   POMASS =   63.546; ZVAL   =   11.000    mass and valenz                                          
   RCORE  =    2.300    outmost cutoff radius                                                       
   RWIGS  =    2.480; RWIGS  =    1.312    wigner-seitz radius (au A)                               
   ENMAX  =  273.246; ENMIN  =  204.934 eV                                                          
   RCLOC  =    1.712    cutoff for local pot                                                        
   LCOR   =        T    correct aug charges                                                         
   LPAW   =        T    paw PP                                                                      
   EAUG   =  516.456                                                                                
   DEXC   =    -.002                                                                                
   RMAX   =    2.789    core radius for proj-oper                                                   
   RAUG   =    1.300    factor for augmentation sphere                                              
   RDEP   =    2.302    core radius for depl-charge                                                 
   QCUT   =   -4.481; QGAM   =    8.963    optimization parameters                                  
                                                                                                    
   Description                                                                                      
     l     E      TYP  RCUT    TYP  RCUT                                                            
     2   .000     23  2.300                                                                         
     2   .000     23  2.300                                                                         
     0   .000     23  2.300                                                                         
     0   .000     23  2.300                                                                         
     1  -.200     23  2.300                                                                         
     1   .000     23  2.300                                                                         
     3   .000      7   .000                                                                         
  local pseudopotential read in
  partial core-charges read in
  atomic valenz-charges read in
  non local Contribution for L=           2  read in
    real space projection operators read in
  non local Contribution for L=           2  read in
    real space projection operators read in
  non local Contribution for L=           0  read in
    real space projection operators read in
  non local Contribution for L=           0  read in
    real space projection operators read in
  non local Contribution for L=           1  read in
    real space projection operators read in
  non local Contribution for L=           1  read in
    real space projection operators read in
    PAW grid and wavefunctions read in
 
   number of l-projection  operators is LMAX  =           6
   number of lm-projection operators is LMMAX =          18
 
 PAW_GGA Cu 05Jan2001                   :
 energy of atom  1       EATOM=-1393.0707
 kinetic energy error for atom=    0.0324 (will be added to EATOM!!)
 
 
 POSCAR: fcc Cu
  positions in cartesian coordinates
  No initial velocities read in
 exchange correlation table for  LEXCH =        7
   RHO(1)=    0.500       N(1)  =     2000
   RHO(2)=  100.500       N(2)  =     4000
 


--------------------------------------------------------------------------------------------------------


 ion  position               nearest neighbor table
   1  0.000  0.000  0.000-
 
  LATTYP: Found a face centered cubic cell.
 ALAT       =     4.0000000000
  
  Lattice vectors:
  
 A1 = (   2.0000000000,   2.0000000000,   0.0000000000)
 A2 = (   0.0000000000,   2.0000000000,   2.0000000000)
 A3 = (   2.0000000000,   0.0000000000,   2.0000000000)


Analysis of symmetry for initial positions (statically):
=====================================================================
 Subroutine PRICEL returns:
 Original cell was already a primitive cell.
 

 Routine SETGRP: Setting up the symmetry group for a 
 face centered cubic supercell.


 Subroutine GETGRP returns: Found 48 space group operations
 (whereof 48 operations were pure point group operations)
 out of a pool of 48 trial point group operations.


The static configuration has the point symmetry O_h .


Analysis of symmetry for dynamics (positions and initial velocities):
=====================================================================
 Subroutine PRICEL returns:
 Original cell was already a primitive cell.
 

 Routine SETGRP: Setting up the symmetry group for a 
 face centered cubic supercell.


 Subroutine GETGRP returns: Found 48 space group operations
 (whereof 48 operations were pure point group operations)
 out of a pool of 48 trial point group operations.


The dynamic configuration has the point symmetry O_h .


 Subroutine INISYM returns: Found 48 space group operations
 (whereof 48 operations are pure point group operations),
 and found     1 'primitive' translations


----------------------------------------------------------------------------------------

                                     Primitive cell                                     

  volume of cell :      16.0000

  direct lattice vectors                    reciprocal lattice vectors
     2.000000000  2.000000000  0.000000000     0.250000000  0.250000000 -0.250000000
     0.000000000  2.000000000  2.000000000    -0.250000000  0.250000000  0.250000000
     2.000000000  0.000000000  2.000000000     0.250000000 -0.250000000  0.250000000

  length of vectors
     2.828427125  2.828427125  2.828427125     0.433012702  0.433012702  0.433012702

  position of ions in fractional coordinates (direct lattice)
     0.000000000  0.000000000  0.000000000

  ion indices of the primitive-cell ions
   primitive index   ion index
                 1           1

----------------------------------------------------------------------------------------

 
 
 KPOINTS: K-Points                                

Automatic generation of k-mesh.
 Grid dimensions read from file:
 generate k-points for:   12   12   12

 Generating k-lattice:

  Cartesian coordinates                     Fractional coordinates (reciprocal lattice)
     0.020833333  0.020833333 -0.020833333     0.083333333  0.000000000  0.000000000
    -0.020833333  0.020833333  0.020833333     0.000000000  0.083333333  0.000000000
     0.020833333 -0.020833333  0.020833333     0.000000000  0.000000000  0.083333333

  Length of vectors
     0.036084392  0.036084392  0.036084392

  Shift w.r.t. Gamma in fractional coordinates (k-lattice)
     0.500000000  0.500000000  0.500000000

 
 Subroutine IBZKPT returns following result:
 ===========================================
 
 Found    182 irreducible k-points:
 
 Following reciprocal coordinates:
            Coordinates               Weight
  0.041667  0.041667  0.041667      8.000000
  0.125000  0.041667  0.041667     24.000000
  0.208333  0.041667  0.041667     24.000000
  0.291667  0.041667  0.041667     24.000000
  0.375000  0.041667  0.041667     24.000000
  0.458333  0.041667  0.041667     24.000000
 -0.458333  0.041667  0.041667     24.000000
 -0.375000  0.041667  0.041667     24.000000
 -0.291667  0.041667  0.041667     24.000000
 -0.208333  0.041667  0.041667     24.000000
 -0.125000  0.041667  0.041667     24.000000
 -0.041667  0.041667  0.041667     24.000000
  0.125000  0.125000  0.041667     24.000000
  0.208333  0.125000  0.041667     48.000000
  0.291667  0.125000  0.041667     48.000000
  0.375000  0.125000  0.041667     48.000000
  0.458333  0.125000  0.041667     48.000000
 -0.458333  0.125000  0.041667     48.000000
 -0.375000  0.125000  0.041667     48.000000
 -0.291667  0.125000  0.041667     48.000000
 -0.208333  0.125000  0.041667     48.000000
 -0.125000  0.125000  0.041667     48.000000
 -0.041667  0.125000  0.041667     48.000000
  0.208333  0.208333  0.041667     24.000000
  0.291667  0.208333  0.041667     48.000000
  0.375000  0.208333  0.041667     48.000000
  0.458333  0.208333  0.041667     48.000000
 -0.458333  0.208333  0.041667     48.000000
 -0.375000  0.208333  0.041667     48.000000
 -0.291667  0.208333  0.041667     48.000000
 -0.208333  0.208333  0.041667     48.000000
 -0.125000  0.208333  0.041667     48.000000
 -0.041667  0.208333  0.041667     48.000000
  0.291667  0.291667  0.041667     24.000000
  0.375000  0.291667  0.041667     48.000000
  0.458333  0.291667  0.041667     48.000000
 -0.458333  0.291667  0.041667     48.000000
 -0.375000  0.291667  0.041667     48.000000
 -0.291667  0.291667  0.041667     48.000000
 -0.208333  0.291667  0.041667     48.000000
 -0.125000  0.291667  0.041667     48.000000
 -0.041667  0.291667  0.041667     48.000000
  0.375000  0.375000  0.041667     24.000000
  0.458333  0.375000  0.041667     48.000000
 -0.458333  0.375000  0.041667     48.000000
 -0.375000  0.375000  0.041667     48.000000
 -0.291667  0.375000  0.041667     48.000000
 -0.208333  0.375000  0.041667     48.000000
 -0.125000  0.375000  0.041667     48.000000
 -0.041667  0.375000  0.041667     48.000000
  0.458333  0.458333  0.041667     24.000000
 -0.458333  0.458333  0.041667     48.000000
 -0.375000  0.458333  0.041667     48.000000
 -0.291667  0.458333  0.041667     48.000000
 -0.208333  0.458333  0.041667     48.000000
 -0.125000  0.458333  0.041667     48.000000
 -0.041667  0.458333  0.041667     48.000000
 -0.458333 -0.458333  0.041667     24.000000
 -0.375000 -0.458333  0.041667     48.000000
 -0.291667 -0.458333  0.041667     48.000000
 -0.208333 -0.458333  0.041667     48.000000
 -0.125000 -0.458333  0.041667     48.000000
 -0.375000 -0.375000  0.041667     24.000000
 -0.291667 -0.375000  0.041667     48.000000
 -0.208333 -0.375000  0.041667     48.000000
 -0.125000 -0.375000  0.041667     48.000000
 -0.291667 -0.291667  0.041667     24.000000
 -0.208333 -0.291667  0.041667     48.000000
 -0.125000 -0.291667  0.041667     48.000000
 -0.208333 -0.208333  0.041667     24.000000
 -0.125000 -0.208333  0.041667     48.000000
 -0.125000 -0.125000  0.041667     24.000000
  0.125000  0.125000  0.125000      8.000000
  0.208333  0.125000  0.125000     24.000000
  0.291667  0.125000  0.125000     24.000000
  0.375000  0.125000  0.125000     24.000000
  0.458333  0.125000  0.125000     24.000000
 -0.458333  0.125000  0.125000     24.000000
 -0.375000  0.125000  0.125000     24.000000
 -0.291667  0.125000  0.125000     24.000000
 -0.208333  0.125000  0.125000     24.000000
 -0.125000  0.125000  0.125000     24.000000
  0.208333  0.208333  0.125000     24.000000
  0.291667  0.208333  0.125000     48.000000
  0.375000  0.208333  0.125000     48.000000
  0.458333  0.208333  0.125000     48.000000
 -0.458333  0.208333  0.125000     48.000000
 -0.375000  0.208333  0.125000     48.000000
 -0.291667  0.208333  0.125000     48.000000
 -0.208333  0.208333  0.125000     48.000000
 -0.125000  0.208333  0.125000     48.000000
  0.291667  0.291667  0.125000     24.000000
  0.375000  0.291667  0.125000     48.000000
  0.458333  0.291667  0.125000     48.000000
 -0.458333  0.291667  0.125000     48.000000
 -0.375000  0.291667  0.125000     48.000000
 -0.291667  0.291667  0.125000     48.000000
 -0.208333  0.291667  0.125000     48.000000
 -0.125000  0.291667  0.125000     48.000000
  0.375000  0.375000  0.125000     24.000000
  0.458333  0.375000  0.125000     48.000000
 -0.458333  0.375000  0.125000     48.000000
 -0.375000  0.375000  0.125000     48.000000
 -0.291667  0.375000  0.125000     48.000000
 -0.208333  0.375000  0.125000     48.000000
 -0.125000  0.375000  0.125000     48.000000
  0.458333  0.458333  0.125000     24.000000
 -0.458333  0.458333  0.125000     48.000000
 -0.375000  0.458333  0.125000     48.000000
 -0.291667  0.458333  0.125000     48.000000
 -0.208333  0.458333  0.125000     48.000000
 -0.125000  0.458333  0.125000     48.000000
 -0.458333 -0.458333  0.125000     24.000000
 -0.375000 -0.458333  0.125000     48.000000
 -0.291667 -0.458333  0.125000     48.000000
 -0.208333 -0.458333  0.125000     48.000000
 -0.375000 -0.375000  0.125000     24.000000
 -0.291667 -0.375000  0.125000     48.000000
 -0.208333 -0.375000  0.125000     48.000000
 -0.291667 -0.291667  0.125000     24.000000
 -0.208333 -0.291667  0.125000     48.000000
 -0.208333 -0.208333  0.125000     24.000000
  0.208333  0.208333  0.208333      8.000000
  0.291667  0.208333  0.208333     24.000000
  0.375000  0.208333  0.208333     24.000000
  0.458333  0.208333  0.208333     24.000000
 -0.458333  0.208333  0.208333     24.000000
 -0.375000  0.208333  0.208333     24.000000
 -0.291667  0.208333  0.208333     24.000000
 -0.208333  0.208333  0.208333     24.000000
  0.291667  0.291667  0.208333     24.000000
  0.375000  0.291667  0.208333     48.000000
  0.458333  0.291667  0.208333     48.000000
 -0.458333  0.291667  0.208333     48.000000
 -0.375000  0.291667  0.208333     48.000000
 -0.291667  0.291667  0.208333     48.000000
 -0.208333  0.291667  0.208333     48.000000
  0.375000  0.375000  0.208333     24.000000
  0.458333  0.375000  0.208333     48.000000
 -0.458333  0.375000  0.208333     48.000000
 -0.375000  0.375000  0.208333     48.000000
 -0.291667  0.375000  0.208333     48.000000
 -0.208333  0.375000  0.208333     48.000000
  0.458333  0.458333  0.208333     24.000000
 -0.458333  0.458333  0.208333     48.000000
 -0.375000  0.458333  0.208333     48.000000
 -0.291667  0.458333  0.208333     48.000000
 -0.208333  0.458333  0.208333     48.000000
 -0.458333 -0.458333  0.208333     24.000000
 -0.375000 -0.458333  0.208333     48.000000
 -0.291667 -0.458333  0.208333     48.000000
 -0.375000 -0.375000  0.208333     24.000000
 -0.291667 -0.375000  0.208333     48.000000
 -0.291667 -0.291667  0.208333     24.000000
  0.291667  0.291667  0.291667      8.000000
  0.375000  0.291667  0.291667     24.000000
  0.458333  0.291667  0.291667     24.000000
 -0.458333  0.291667  0.291667     24.000000
 -0.375000  0.291667  0.291667     24.000000
 -0.291667  0.291667  0.291667     24.000000
  0.375000  0.375000  0.291667     24.000000
  0.458333  0.375000  0.291667     48.000000
 -0.458333  0.375000  0.291667     48.000000
 -0.375000  0.375000  0.291667     48.000000
 -0.291667  0.375000  0.291667     48.000000
  0.458333  0.458333  0.291667     24.000000
 -0.458333  0.458333  0.291667     48.000000
 -0.375000  0.458333  0.291667     48.000000
 -0.291667  0.458333  0.291667     48.000000
 -0.458333 -0.458333  0.291667     24.000000
 -0.375000 -0.458333  0.291667     48.000000
 -0.375000 -0.375000  0.291667     24.000000
  0.375000  0.375000  0.375000      8.000000
  0.458333  0.375000  0.375000     24.000000
 -0.458333  0.375000  0.375000     24.000000
 -0.375000  0.375000  0.375000     24.000000
  0.458333  0.458333  0.375000     24.000000
 -0.458333  0.458333  0.375000     48.000000
 -0.375000  0.458333  0.375000     48.000000
 -0.458333 -0.458333  0.375000     24.000000
  0.458333  0.458333  0.458333      8.000000
 -0.458333  0.458333  0.458333     24.000000
 
 Following cartesian coordinates:
            Coordinates               Weight
  0.041667  0.041667  0.041667      8.000000
  0.125000  0.125000 -0.041667     24.000000
  0.208333  0.208333 -0.125000     24.000000
  0.291667  0.291667 -0.208333     24.000000
  0.375000  0.375000 -0.291667     24.000000
  0.458333  0.458333 -0.375000     24.000000
 -0.458333 -0.458333  0.541667     24.000000
 -0.375000 -0.375000  0.458333     24.000000
 -0.291667 -0.291667  0.375000     24.000000
 -0.208333 -0.208333  0.291667     24.000000
 -0.125000 -0.125000  0.208333     24.000000
 -0.041667 -0.041667  0.125000     24.000000
  0.041667  0.208333  0.041667     24.000000
  0.125000  0.291667 -0.041667     48.000000
  0.208333  0.375000 -0.125000     48.000000
  0.291667  0.458333 -0.208333     48.000000
  0.375000  0.541667 -0.291667     48.000000
 -0.541667 -0.375000  0.625000     48.000000
 -0.458333 -0.291667  0.541667     48.000000
 -0.375000 -0.208333  0.458333     48.000000
 -0.291667 -0.125000  0.375000     48.000000
 -0.208333 -0.041667  0.291667     48.000000
 -0.125000  0.041667  0.208333     48.000000
  0.041667  0.375000  0.041667     24.000000
  0.125000  0.458333 -0.041667     48.000000
  0.208333  0.541667 -0.125000     48.000000
  0.291667  0.625000 -0.208333     48.000000
 -0.625000 -0.291667  0.708333     48.000000
 -0.541667 -0.208333  0.625000     48.000000
 -0.458333 -0.125000  0.541667     48.000000
 -0.375000 -0.041667  0.458333     48.000000
 -0.291667  0.041667  0.375000     48.000000
 -0.208333  0.125000  0.291667     48.000000
  0.041667  0.541667  0.041667     24.000000
  0.125000  0.625000 -0.041667     48.000000
  0.208333  0.708333 -0.125000     48.000000
 -0.708333 -0.208333  0.791667     48.000000
 -0.625000 -0.125000  0.708333     48.000000
 -0.541667 -0.041667  0.625000     48.000000
 -0.458333  0.041667  0.541667     48.000000
 -0.375000  0.125000  0.458333     48.000000
 -0.291667  0.208333  0.375000     48.000000
  0.041667  0.708333  0.041667     24.000000
  0.125000  0.791667 -0.041667     48.000000
 -0.791667 -0.125000  0.875000     48.000000
 -0.708333 -0.041667  0.791667     48.000000
 -0.625000  0.041667  0.708333     48.000000
 -0.541667  0.125000  0.625000     48.000000
 -0.458333  0.208333  0.541667     48.000000
 -0.375000  0.291667  0.458333     48.000000
  0.041667  0.875000  0.041667     24.000000
 -0.875000 -0.041667  0.958333     48.000000
 -0.791667  0.041667  0.875000     48.000000
 -0.708333  0.125000  0.791667     48.000000
 -0.625000  0.208333  0.708333     48.000000
 -0.541667  0.291667  0.625000     48.000000
 -0.458333  0.375000  0.541667     48.000000
  0.041667 -0.958333  0.041667     24.000000
  0.125000 -0.875000 -0.041667     48.000000
  0.208333 -0.791667 -0.125000     48.000000
  0.291667 -0.708333 -0.208333     48.000000
  0.375000 -0.625000 -0.291667     48.000000
  0.041667 -0.791667  0.041667     24.000000
  0.125000 -0.708333 -0.041667     48.000000
  0.208333 -0.625000 -0.125000     48.000000
  0.291667 -0.541667 -0.208333     48.000000
  0.041667 -0.625000  0.041667     24.000000
  0.125000 -0.541667 -0.041667     48.000000
  0.208333 -0.458333 -0.125000     48.000000
  0.041667 -0.458333  0.041667     24.000000
  0.125000 -0.375000 -0.041667     48.000000
  0.041667 -0.291667  0.041667     24.000000
  0.125000  0.125000  0.125000      8.000000
  0.208333  0.208333  0.041667     24.000000
  0.291667  0.291667 -0.041667     24.000000
  0.375000  0.375000 -0.125000     24.000000
  0.458333  0.458333 -0.208333     24.000000
 -0.458333 -0.458333  0.708333     24.000000
 -0.375000 -0.375000  0.625000     24.000000
 -0.291667 -0.291667  0.541667     24.000000
 -0.208333 -0.208333  0.458333     24.000000
 -0.125000 -0.125000  0.375000     24.000000
  0.125000  0.291667  0.125000     24.000000
  0.208333  0.375000  0.041667     48.000000
  0.291667  0.458333 -0.041667     48.000000
  0.375000  0.541667 -0.125000     48.000000
 -0.541667 -0.375000  0.791667     48.000000
 -0.458333 -0.291667  0.708333     48.000000
 -0.375000 -0.208333  0.625000     48.000000
 -0.291667 -0.125000  0.541667     48.000000
 -0.208333 -0.041667  0.458333     48.000000
  0.125000  0.458333  0.125000     24.000000
  0.208333  0.541667  0.041667     48.000000
  0.291667  0.625000 -0.041667     48.000000
 -0.625000 -0.291667  0.875000     48.000000
 -0.541667 -0.208333  0.791667     48.000000
 -0.458333 -0.125000  0.708333     48.000000
 -0.375000 -0.041667  0.625000     48.000000
 -0.291667  0.041667  0.541667     48.000000
  0.125000  0.625000  0.125000     24.000000
  0.208333  0.708333  0.041667     48.000000
 -0.708333 -0.208333  0.958333     48.000000
 -0.625000 -0.125000  0.875000     48.000000
 -0.541667 -0.041667  0.791667     48.000000
 -0.458333  0.041667  0.708333     48.000000
 -0.375000  0.125000  0.625000     48.000000
  0.125000  0.791667  0.125000     24.000000
 -0.791667 -0.125000  1.041667     48.000000
 -0.708333 -0.041667  0.958333     48.000000
 -0.625000  0.041667  0.875000     48.000000
 -0.541667  0.125000  0.791667     48.000000
 -0.458333  0.208333  0.708333     48.000000
  0.125000 -1.041667  0.125000     24.000000
  0.208333 -0.958333  0.041667     48.000000
  0.291667 -0.875000 -0.041667     48.000000
  0.375000 -0.791667 -0.125000     48.000000
  0.125000 -0.875000  0.125000     24.000000
  0.208333 -0.791667  0.041667     48.000000
  0.291667 -0.708333 -0.041667     48.000000
  0.125000 -0.708333  0.125000     24.000000
  0.208333 -0.625000  0.041667     48.000000
  0.125000 -0.541667  0.125000     24.000000
  0.208333  0.208333  0.208333      8.000000
  0.291667  0.291667  0.125000     24.000000
  0.375000  0.375000  0.041667     24.000000
  0.458333  0.458333 -0.041667     24.000000
 -0.458333 -0.458333  0.875000     24.000000
 -0.375000 -0.375000  0.791667     24.000000
 -0.291667 -0.291667  0.708333     24.000000
 -0.208333 -0.208333  0.625000     24.000000
  0.208333  0.375000  0.208333     24.000000
  0.291667  0.458333  0.125000     48.000000
  0.375000  0.541667  0.041667     48.000000
 -0.541667 -0.375000  0.958333     48.000000
 -0.458333 -0.291667  0.875000     48.000000
 -0.375000 -0.208333  0.791667     48.000000
 -0.291667 -0.125000  0.708333     48.000000
  0.208333  0.541667  0.208333     24.000000
  0.291667  0.625000  0.125000     48.000000
 -0.625000 -0.291667  1.041667     48.000000
 -0.541667 -0.208333  0.958333     48.000000
 -0.458333 -0.125000  0.875000     48.000000
 -0.375000 -0.041667  0.791667     48.000000
  0.208333  0.708333  0.208333     24.000000
 -0.708333 -0.208333  1.125000     48.000000
 -0.625000 -0.125000  1.041667     48.000000
 -0.541667 -0.041667  0.958333     48.000000
 -0.458333  0.041667  0.875000     48.000000
  0.208333 -1.125000  0.208333     24.000000
  0.291667 -1.041667  0.125000     48.000000
  0.375000 -0.958333  0.041667     48.000000
  0.208333 -0.958333  0.208333     24.000000
  0.291667 -0.875000  0.125000     48.000000
  0.208333 -0.791667  0.208333     24.000000
  0.291667  0.291667  0.291667      8.000000
  0.375000  0.375000  0.208333     24.000000
  0.458333  0.458333  0.125000     24.000000
 -0.458333 -0.458333  1.041667     24.000000
 -0.375000 -0.375000  0.958333     24.000000
 -0.291667 -0.291667  0.875000     24.000000
  0.291667  0.458333  0.291667     24.000000
  0.375000  0.541667  0.208333     48.000000
 -0.541667 -0.375000  1.125000     48.000000
 -0.458333 -0.291667  1.041667     48.000000
 -0.375000 -0.208333  0.958333     48.000000
  0.291667  0.625000  0.291667     24.000000
 -0.625000 -0.291667  1.208333     48.000000
 -0.541667 -0.208333  1.125000     48.000000
 -0.458333 -0.125000  1.041667     48.000000
  0.291667 -1.208333  0.291667     24.000000
  0.375000 -1.125000  0.208333     48.000000
  0.291667 -1.041667  0.291667     24.000000
  0.375000  0.375000  0.375000      8.000000
  0.458333  0.458333  0.291667     24.000000
 -0.458333 -0.458333  1.208333     24.000000
 -0.375000 -0.375000  1.125000     24.000000
  0.375000  0.541667  0.375000     24.000000
 -0.541667 -0.375000  1.291667     48.000000
 -0.458333 -0.291667  1.208333     48.000000
  0.375000 -1.291667  0.375000     24.000000
  0.458333  0.458333  0.458333      8.000000
 -0.458333 -0.458333  1.375000     24.000000
 


--------------------------------------------------------------------------------------------------------




 Dimension of arrays:
   k-points           NKPTS =    182   k-points in BZ     NKDIM =    182   number of bands    NBANDS=     10
   number of dos      NEDOS =    301   number of ions     NIONS =      1
   non local maximal  LDIM  =      6   non local SUM 2l+1 LMDIM =     18
   total plane-waves  NPLWV =   1728
   max r-space proj   IRMAX =      1   max aug-charges    IRDMAX=   3990
   dimension x,y,z NGX =    12 NGY =   12 NGZ =   12
   dimension x,y,z NGXF=    24 NGYF=   24 NGZF=   24
   support grid    NGXF=    24 NGYF=   24 NGZF=   24
   ions per type =               1
   NGX,Y,Z   is equivalent  to a cutoff of   7.05,  7.05,  7.05 a.u.
   NGXF,Y,Z  is equivalent  to a cutoff of  14.11, 14.11, 14.11 a.u.

 SYSTEM =  fcc Cu                                  
 POSCAR =  fcc Cu                                  

 Startparameter for this run:
   NWRITE =      2    write-flag & timer
   PREC   = normal    normal or accurate (medium, high low for compatibility)
   ISTART =      0    job   : 0-new  1-cont  2-samecut
   ICHARG =      0    charge: 1-file 2-atom 10-const
   ISPIN  =      1    spin polarized calculation?
   LNONCOLLINEAR =      F non collinear calculations
   LSORBIT =      F    spin-orbit coupling
   INIWAV =      1    electr: 0-lowe 1-rand  2-diag
   LASPH  =      F    aspherical Exc in radial PAW
 Electronic Relaxation 1
   ENCUT  =  292.0 eV  21.46 Ry    4.63 a.u.   3.94  3.94  3.94*2*pi/ulx,y,z
   ENINI  =  292.0     initial cutoff
   ENAUG  =  516.5 eV  augmentation charge cutoff
   NELM   =     60;   NELMIN=  2; NELMDL= -5     # of ELM steps 
   EDIFF  = 0.1E-03   stopping-criterion for ELM
   LREAL  =      F    real-space projection
   NLSPLINE    = F    spline interpolate recip. space projectors
   LCOMPAT=      F    compatible to vasp.4.4
   GGA_COMPAT  = T    GGA compatible to vasp.4.4-vasp.4.6
   LMAXPAW     = -100 max onsite density
   LMAXMIX     =    2 max onsite mixed and CHGCAR
   VOSKOWN=      0    Vosko Wilk Nusair interpolation
   ROPT   =    0.00000
 Ionic relaxation
   EDIFFG = 0.1E-02   stopping-criterion for IOM
   NSW    =      0    number of steps for IOM
   NBLOCK =      1;   KBLOCK =      1    inner block; outer block 
   IBRION =     -1    ionic relax: 0-MD 1-quasi-New 2-CG
   NFREE  =      0    steps in history (QN), initial steepest desc. (CG)
   ISIF   =      2    stress and relaxation
   IWAVPR =     10    prediction:  0-non 1-charg 2-wave 3-comb
   ISYM   =      2    0-nonsym 1-usesym 2-fastsym
   LCORR  =      T    Harris-Foulkes like correction to forces

   POTIM  = 0.5000    time-step for ionic-motion
   TEIN   =    0.0    initial temperature
   TEBEG  =    0.0;   TEEND  =   0.0 temperature during run
   SMASS  =  -3.00    Nose mass-parameter (am)
   estimated Nose-frequenzy (Omega)   =  0.10E-29 period in steps = 0.13E+47 mass=  -0.183E-27a.u.
   SCALEE = 1.0000    scale energy and forces
   NPACO  =    256;   APACO  = 10.0  distance and # of slots for P.C.
   PSTRESS=    0.0 pullay stress

  Mass of Ions in am
   POMASS =  63.55
  Ionic Valenz
   ZVAL   =  11.00
  Atomic Wigner-Seitz radii
   RWIGS  =  -1.00
  virtual crystal weights 
   VCA    =   1.00
   NELECT =      11.0000    total number of electrons
   NUPDOWN=      -1.0000    fix difference up-down

 DOS related values:
   EMIN   =  10.00;   EMAX   =-10.00  energy-range for DOS
   EFERMI =   0.00
   ISMEAR =     0;   SIGMA  =   0.05  broadening in eV -4-tet -1-fermi 0-gaus

 Electronic relaxation 2 (details)
   IALGO  =     38    algorithm
   LDIAG  =      T    sub-space diagonalisation (order eigenvalues)
   LSUBROT=      F    optimize rotation matrix (better conditioning)
   TURBO    =      0    0=normal 1=particle mesh
   IRESTART =      0    0=no restart 2=restart with 2 vectors
   NREBOOT  =      0    no. of reboots
   NMIN     =      0    reboot dimension
   EREF     =   0.00    reference energy to select bands
   IMIX   =      4    mixing-type and parameters
     AMIX     =   0.40;   BMIX     =  1.00
     AMIX_MAG =   1.60;   BMIX_MAG =  1.00
     AMIN     =   0.10
     WC   =   100.;   INIMIX=   1;  MIXPRE=   1;  MAXMIX= -45

 Intra band minimization:
   WEIMIN = 0.0000     energy-eigenvalue tresh-hold
   EBREAK =  0.25E-05  absolut break condition
   DEPER  =   0.30     relativ break condition  

   TIME   =   0.40     timestep for ELM

  volume/ion in A,a.u.               =      16.00       107.97
  Fermi-wavevector in a.u.,A,eV,Ry     =   1.444882  2.730431 28.404667  2.087684
  Thomas-Fermi vector in A             =   2.563127
 
 Write flags
   LWAVE        =      T    write WAVECAR
   LDOWNSAMPLE  =      F    k-point downsampling of WAVECAR
   LCHARG       =      T    write CHGCAR
   LVTOT        =      F    write LOCPOT, total local potential
   LVHAR        =      F    write LOCPOT, Hartree potential only
   LELF         =      F    write electronic localiz. function (ELF)
   LORBIT       =      0    0 simple, 1 ext, 2 COOP (PROOUT), +10 PAW based schemes


 Dipole corrections
   LMONO  =      F    monopole corrections only (constant potential shift)
   LDIPOL =      F    correct potential (dipole corrections)
   IDIPOL =      0    1-x, 2-y, 3-z, 4-all directions 
   EPSILON=  1.0000000 bulk dielectric constant

 Exchange correlation treatment:
   GGA     =    91    GGA type
   LEXCH   =     7    internal setting for exchange type
   LIBXC   =     F    Libxc                    
   VOSKOWN =     0    Vosko Wilk Nusair interpolation
   LHFCALC =     F    Hartree Fock is set to
   LHFONE  =     F    Hartree Fock one center treatment
   AEXX    =    0.0000 exact exchange contribution

 Linear response parameters
   LEPSILON=     F    determine dielectric tensor
   LRPA    =     F    only Hartree local field effects (RPA)
   LNABLA  =     F    use nabla operator in PAW spheres
   LVEL    =     F    velocity operator in full k-point grid
   CSHIFT  =0.1000    complex shift for real part using Kramers Kronig
   OMEGAMAX=  -1.0    maximum frequency
   DEG_THRESHOLD= 0.2000000E-02 threshold for treating states as degnerate
   RTIME   =   -0.100 relaxation time in fs
  (WPLASMAI=    0.000 imaginary part of plasma frequency in eV, 0.658/RTIME)
   DFIELD  = 0.0000000 0.0000000 0.0000000 field for delta impulse in time
 
  Optional k-point grid parameters
   LKPOINTS_OPT  =     F    use optional k-point grid
   KPOINTS_OPT_MODE=     1    mode for optional k-point grid
 
 Orbital magnetization related:
   ORBITALMAG=     F  switch on orbital magnetization
   LCHIMAG   =     F  perturbation theory with respect to B field
   DQ        =  0.001000  dq finite difference perturbation B field
   LLRAUG    =     F  two centre corrections for induced B field



--------------------------------------------------------------------------------------------------------


 Static calculation
 charge density and potential will be updated during run
 non-spin polarized calculation
 Variant of blocked Davidson
 Davidson routine will perform the subspace rotation
 perform sub-space diagonalisation
    after iterative eigenvector-optimisation
 modified Broyden-mixing scheme, WC =      100.0
 initial mixing is a Kerker type mixing with AMIX =  0.4000 and BMIX =      1.0000
 Hartree-type preconditioning will be used
 using additional bands            4
 reciprocal scheme for non local part
 use partial core corrections
 calculate Harris-corrections to forces 
   (improved forces if not selfconsistent)
 use gradient corrections 
 use of overlap-Matrix (Vanderbilt PP)
 Gauss-broadening in eV      SIGMA  =   0.05


--------------------------------------------------------------------------------------------------------


  energy-cutoff  :      292.00
  volume of cell :       16.00
      direct lattice vectors                 reciprocal lattice vectors
     2.000000000  2.000000000  0.000000000     0.250000000  0.250000000 -0.250000000
     0.000000000  2.000000000  2.000000000    -0.250000000  0.250000000  0.250000000
     2.000000000  0.000000000  2.000000000     0.250000000 -0.250000000  0.250000000

  length of vectors
     2.828427125  2.828427125  2.828427125     0.433012702  0.433012702  0.433012702


 
 k-points in units of 2pi/SCALE and weight: K-Points                                
   0.04166667  0.04166667  0.04166667       0.001
   0.12500000  0.12500000 -0.04166667       0.003
   0.20833333  0.20833333 -0.12500000       0.003
   0.29166667  0.29166667 -0.20833333       0.003
   0.37500000  0.37500000 -0.29166667       0.003
   0.45833333  0.45833333 -0.37500000       0.003
  -0.45833333 -0.45833333  0.54166667       0.003
  -0.37500000 -0.37500000  0.45833333       0.003
  -0.29166667 -0.29166667  0.37500000       0.003
  -0.20833333 -0.20833333  0.29166667       0.003
  -0.12500000 -0.12500000  0.20833333       0.003
  -0.04166667 -0.04166667  0.12500000       0.003
   0.04166667  0.20833333  0.04166667       0.003
   0.12500000  0.29166667 -0.04166667       0.007
   0.20833333  0.37500000 -0.12500000       0.007
   0.29166667  0.45833333 -0.20833333       0.007
   0.37500000  0.54166667 -0.29166667       0.007
  -0.54166667 -0.37500000  0.62500000       0.007
  -0.45833333 -0.29166667  0.54166667       0.007
  -0.37500000 -0.20833333  0.45833333       0.007
  -0.29166667 -0.12500000  0.37500000       0.007
  -0.20833333 -0.04166667  0.29166667       0.007
  -0.12500000  0.04166667  0.20833333       0.007
   0.04166667  0.37500000  0.04166667       0.003
   0.12500000  0.45833333 -0.04166667       0.007
   0.20833333  0.54166667 -0.12500000       0.007
   0.29166667  0.62500000 -0.20833333       0.007
  -0.62500000 -0.29166667  0.70833333       0.007
  -0.54166667 -0.20833333  0.62500000       0.007
  -0.45833333 -0.12500000  0.54166667       0.007
  -0.37500000 -0.04166667  0.45833333       0.007
  -0.29166667  0.04166667  0.37500000       0.007
  -0.20833333  0.12500000  0.29166667       0.007
   0.04166667  0.54166667  0.04166667       0.003
   0.12500000  0.62500000 -0.04166667       0.007
   0.20833333  0.70833333 -0.12500000       0.007
  -0.70833333 -0.20833333  0.79166667       0.007
  -0.62500000 -0.12500000  0.70833333       0.007
  -0.54166667 -0.04166667  0.62500000       0.007
  -0.45833333  0.04166667  0.54166667       0.007
  -0.37500000  0.12500000  0.45833333       0.007
  -0.29166667  0.20833333  0.37500000       0.007
   0.04166667  0.70833333  0.04166667       0.003
   0.12500000  0.79166667 -0.04166667       0.007
  -0.79166667 -0.12500000  0.87500000       0.007
  -0.70833333 -0.04166667  0.79166667       0.007
  -0.62500000  0.04166667  0.70833333       0.007
  -0.54166667  0.12500000  0.62500000       0.007
  -0.45833333  0.20833333  0.54166667       0.007
  -0.37500000  0.29166667  0.45833333       0.007
   0.04166667  0.87500000  0.04166667       0.003
  -0.87500000 -0.04166667  0.95833333       0.007
  -0.79166667  0.04166667  0.87500000       0.007
  -0.70833333  0.12500000  0.79166667       0.007
  -0.62500000  0.20833333  0.70833333       0.007
  -0.54166667  0.29166667  0.62500000       0.007
  -0.45833333  0.37500000  0.54166667       0.007
   0.04166667 -0.95833333  0.04166667       0.003
   0.12500000 -0.87500000 -0.04166667       0.007
   0.20833333 -0.79166667 -0.12500000       0.007
   0.29166667 -0.70833333 -0.20833333       0.007
   0.37500000 -0.62500000 -0.29166667       0.007
   0.04166667 -0.79166667  0.04166667       0.003
   0.12500000 -0.70833333 -0.04166667       0.007
   0.20833333 -0.62500000 -0.12500000       0.007
   0.29166667 -0.54166667 -0.20833333       0.007
   0.04166667 -0.62500000  0.04166667       0.003
   0.12500000 -0.54166667 -0.04166667       0.007
   0.20833333 -0.45833333 -0.12500000       0.007
   0.04166667 -0.45833333  0.04166667       0.003
   0.12500000 -0.37500000 -0.04166667       0.007
   0.04166667 -0.29166667  0.04166667       0.003
   0.12500000  0.12500000  0.12500000       0.001
   0.20833333  0.20833333  0.04166667       0.003
   0.29166667  0.29166667 -0.04166667       0.003
   0.37500000  0.37500000 -0.12500000       0.003
   0.45833333  0.45833333 -0.20833333       0.003
  -0.45833333 -0.45833333  0.70833333       0.003
  -0.37500000 -0.37500000  0.62500000       0.003
  -0.29166667 -0.29166667  0.54166667       0.003
  -0.20833333 -0.20833333  0.45833333       0.003
  -0.12500000 -0.12500000  0.37500000       0.003
   0.12500000  0.29166667  0.12500000       0.003
   0.20833333  0.37500000  0.04166667       0.007
   0.29166667  0.45833333 -0.04166667       0.007
   0.37500000  0.54166667 -0.12500000       0.007
  -0.54166667 -0.37500000  0.79166667       0.007
  -0.45833333 -0.29166667  0.70833333       0.007
  -0.37500000 -0.20833333  0.62500000       0.007
  -0.29166667 -0.12500000  0.54166667       0.007
  -0.20833333 -0.04166667  0.45833333       0.007
   0.12500000  0.45833333  0.12500000       0.003
   0.20833333  0.54166667  0.04166667       0.007
   0.29166667  0.62500000 -0.04166667       0.007
  -0.62500000 -0.29166667  0.87500000       0.007
  -0.54166667 -0.20833333  0.79166667       0.007
  -0.45833333 -0.12500000  0.70833333       0.007
  -0.37500000 -0.04166667  0.62500000       0.007
  -0.29166667  0.04166667  0.54166667       0.007
   0.12500000  0.62500000  0.12500000       0.003
   0.20833333  0.70833333  0.04166667       0.007
  -0.70833333 -0.20833333  0.95833333       0.007
  -0.62500000 -0.12500000  0.87500000       0.007
  -0.54166667 -0.04166667  0.79166667       0.007
  -0.45833333  0.04166667  0.70833333       0.007
  -0.37500000  0.12500000  0.62500000       0.007
   0.12500000  0.79166667  0.12500000       0.003
  -0.79166667 -0.12500000  1.04166667       0.007
  -0.70833333 -0.04166667  0.95833333       0.007
  -0.62500000  0.04166667  0.87500000       0.007
  -0.54166667  0.12500000  0.79166667       0.007
  -0.45833333  0.20833333  0.70833333       0.007
   0.12500000 -1.04166667  0.12500000       0.003
   0.20833333 -0.95833333  0.04166667       0.007
   0.29166667 -0.87500000 -0.04166667       0.007
   0.37500000 -0.79166667 -0.12500000       0.007
   0.12500000 -0.87500000  0.12500000       0.003
   0.20833333 -0.79166667  0.04166667       0.007
   0.29166667 -0.70833333 -0.04166667       0.007
   0.12500000 -0.70833333  0.12500000       0.003
   0.20833333 -0.62500000  0.04166667       0.007
   0.12500000 -0.54166667  0.12500000       0.003
   0.20833333  0.20833333  0.20833333       0.001
   0.29166667  0.29166667  0.12500000       0.003
   0.37500000  0.37500000  0.04166667       0.003
   0.45833333  0.45833333 -0.04166667       0.003
  -0.45833333 -0.45833333  0.87500000       0.003
  -0.37500000 -0.37500000  0.79166667       0.003
  -0.29166667 -0.29166667  0.70833333       0.003
  -0.20833333 -0.20833333  0.62500000       0.003
   0.20833333  0.37500000  0.20833333       0.003
   0.29166667  0.45833333  0.12500000       0.007
   0.37500000  0.54166667  0.04166667       0.007
  -0.54166667 -0.37500000  0.95833333       0.007
  -0.45833333 -0.29166667  0.87500000       0.007
  -0.37500000 -0.20833333  0.79166667       0.007
  -0.29166667 -0.12500000  0.70833333       0.007
   0.20833333  0.54166667  0.20833333       0.003
   0.29166667  0.62500000  0.12500000       0.007
  -0.62500000 -0.29166667  1.04166667       0.007
  -0.54166667 -0.20833333  0.95833333       0.007
  -0.45833333 -0.12500000  0.87500000       0.007
  -0.37500000 -0.04166667  0.79166667       0.007
   0.20833333  0.70833333  0.20833333       0.003
  -0.70833333 -0.20833333  1.12500000       0.007
  -0.62500000 -0.12500000  1.04166667       0.007
  -0.54166667 -0.04166667  0.95833333       0.007
  -0.45833333  0.04166667  0.87500000       0.007
   0.20833333 -1.12500000  0.20833333       0.003
   0.29166667 -1.04166667  0.12500000       0.007
   0.37500000 -0.95833333  0.04166667       0.007
   0.20833333 -0.95833333  0.20833333       0.003
   0.29166667 -0.87500000  0.12500000       0.007
   0.20833333 -0.79166667  0.20833333       0.003
   0.29166667  0.29166667  0.29166667       0.001
   0.37500000  0.37500000  0.20833333       0.003
   0.45833333  0.45833333  0.12500000       0.003
  -0.45833333 -0.45833333  1.04166667       0.003
  -0.37500000 -0.37500000  0.95833333       0.003
  -0.29166667 -0.29166667  0.87500000       0.003
   0.29166667  0.45833333  0.29166667       0.003
   0.37500000  0.54166667  0.20833333       0.007
  -0.54166667 -0.37500000  1.12500000       0.007
  -0.45833333 -0.29166667  1.04166667       0.007
  -0.37500000 -0.20833333  0.95833333       0.007
   0.29166667  0.62500000  0.29166667       0.003
  -0.62500000 -0.29166667  1.20833333       0.007
  -0.54166667 -0.20833333  1.12500000       0.007
  -0.45833333 -0.12500000  1.04166667       0.007
   0.29166667 -1.20833333  0.29166667       0.003
   0.37500000 -1.12500000  0.20833333       0.007
   0.29166667 -1.04166667  0.29166667       0.003
   0.37500000  0.37500000  0.37500000       0.001
   0.45833333  0.45833333  0.29166667       0.003
  -0.45833333 -0.45833333  1.20833333       0.003
  -0.37500000 -0.37500000  1.12500000       0.003
   0.37500000  0.54166667  0.37500000       0.003
  -0.54166667 -0.37500000  1.29166667       0.007
  -0.45833333 -0.29166667  1.20833333       0.007
   0.37500000 -1.29166667  0.37500000       0.003
   0.45833333  0.45833333  0.45833333       0.001
  -0.45833333 -0.45833333  1.37500000       0.003
 
 k-points in reciprocal lattice and weights: K-Points                                
   0.04166667  0.04166667  0.04166667       0.001
   0.12500000  0.04166667  0.04166667       0.003
   0.20833333  0.04166667  0.04166667       0.003
   0.29166667  0.04166667  0.04166667       0.003
   0.37500000  0.04166667  0.04166667       0.003
   0.45833333  0.04166667  0.04166667       0.003
  -0.45833333  0.04166667  0.04166667       0.003
  -0.37500000  0.04166667  0.04166667       0.003
  -0.29166667  0.04166667  0.04166667       0.003
  -0.20833333  0.04166667  0.04166667       0.003
  -0.12500000  0.04166667  0.04166667       0.003
  -0.04166667  0.04166667  0.04166667       0.003
   0.12500000  0.12500000  0.04166667       0.003
   0.20833333  0.12500000  0.04166667       0.007
   0.29166667  0.12500000  0.04166667       0.007
   0.37500000  0.12500000  0.04166667       0.007
   0.45833333  0.12500000  0.04166667       0.007
  -0.45833333  0.12500000  0.04166667       0.007
  -0.37500000  0.12500000  0.04166667       0.007
  -0.29166667  0.12500000  0.04166667       0.007
  -0.20833333  0.12500000  0.04166667       0.007
  -0.12500000  0.12500000  0.04166667       0.007
  -0.04166667  0.12500000  0.04166667       0.007
   0.20833333  0.20833333  0.04166667       0.003
   0.29166667  0.20833333  0.04166667       0.007
   0.37500000  0.20833333  0.04166667       0.007
   0.45833333  0.20833333  0.04166667       0.007
  -0.45833333  0.20833333  0.04166667       0.007
  -0.37500000  0.20833333  0.04166667       0.007
  -0.29166667  0.20833333  0.04166667       0.007
  -0.20833333  0.20833333  0.04166667       0.007
  -0.12500000  0.20833333  0.04166667       0.007
  -0.04166667  0.20833333  0.04166667       0.007
   0.29166667  0.29166667  0.04166667       0.003
   0.37500000  0.29166667  0.04166667       0.007
   0.45833333  0.29166667  0.04166667       0.007
  -0.45833333  0.29166667  0.04166667       0.007
  -0.37500000  0.29166667  0.04166667       0.007
  -0.29166667  0.29166667  0.04166667       0.007
  -0.20833333  0.29166667  0.04166667       0.007
  -0.12500000  0.29166667  0.04166667       0.007
  -0.04166667  0.29166667  0.04166667       0.007
   0.37500000  0.37500000  0.04166667       0.003
   0.45833333  0.37500000  0.04166667       0.007
  -0.45833333  0.37500000  0.04166667       0.007
  -0.37500000  0.37500000  0.04166667       0.007
  -0.29166667  0.37500000  0.04166667       0.007
  -0.20833333  0.37500000  0.04166667       0.007
  -0.12500000  0.37500000  0.04166667       0.007
  -0.04166667  0.37500000  0.04166667       0.007
   0.45833333  0.45833333  0.04166667       0.003
  -0.45833333  0.45833333  0.04166667       0.007
  -0.37500000  0.45833333  0.04166667       0.007
  -0.29166667  0.45833333  0.04166667       0.007
  -0.20833333  0.45833333  0.04166667       0.007
  -0.12500000  0.45833333  0.04166667       0.007
  -0.04166667  0.45833333  0.04166667       0.007
  -0.45833333 -0.45833333  0.04166667       0.003
  -0.37500000 -0.45833333  0.04166667       0.007
  -0.29166667 -0.45833333  0.04166667       0.007
  -0.20833333 -0.45833333  0.04166667       0.007
  -0.12500000 -0.45833333  0.04166667       0.007
  -0.37500000 -0.37500000  0.04166667       0.003
  -0.29166667 -0.37500000  0.04166667       0.007
  -0.20833333 -0.37500000  0.04166667       0.007
  -0.12500000 -0.37500000  0.04166667       0.007
  -0.29166667 -0.29166667  0.04166667       0.003
  -0.20833333 -0.29166667  0.04166667       0.007
  -0.12500000 -0.29166667  0.04166667       0.007
  -0.20833333 -0.20833333  0.04166667       0.003
  -0.12500000 -0.20833333  0.04166667       0.007
  -0.12500000 -0.12500000  0.04166667       0.003
   0.12500000  0.12500000  0.12500000       0.001
   0.20833333  0.12500000  0.12500000       0.003
   0.29166667  0.12500000  0.12500000       0.003
   0.37500000  0.12500000  0.12500000       0.003
   0.45833333  0.12500000  0.12500000       0.003
  -0.45833333  0.12500000  0.12500000       0.003
  -0.37500000  0.12500000  0.12500000       0.003
  -0.29166667  0.12500000  0.12500000       0.003
  -0.20833333  0.12500000  0.12500000       0.003
  -0.12500000  0.12500000  0.12500000       0.003
   0.20833333  0.20833333  0.12500000       0.003
   0.29166667  0.20833333  0.12500000       0.007
   0.37500000  0.20833333  0.12500000       0.007
   0.45833333  0.20833333  0.12500000       0.007
  -0.45833333  0.20833333  0.12500000       0.007
  -0.37500000  0.20833333  0.12500000       0.007
  -0.29166667  0.20833333  0.12500000       0.007
  -0.20833333  0.20833333  0.12500000       0.007
  -0.12500000  0.20833333  0.12500000       0.007
   0.29166667  0.29166667  0.12500000       0.003
   0.37500000  0.29166667  0.12500000       0.007
   0.45833333  0.29166667  0.12500000       0.007
  -0.45833333  0.29166667  0.12500000       0.007
  -0.37500000  0.29166667  0.12500000       0.007
  -0.29166667  0.29166667  0.12500000       0.007
  -0.20833333  0.29166667  0.12500000       0.007
  -0.12500000  0.29166667  0.12500000       0.007
   0.37500000  0.37500000  0.12500000       0.003
   0.45833333  0.37500000  0.12500000       0.007
  -0.45833333  0.37500000  0.12500000       0.007
  -0.37500000  0.37500000  0.12500000       0.007
  -0.29166667  0.37500000  0.12500000       0.007
  -0.20833333  0.37500000  0.12500000       0.007
  -0.12500000  0.37500000  0.12500000       0.007
   0.45833333  0.45833333  0.12500000       0.003
  -0.45833333  0.45833333  0.12500000       0.007
  -0.37500000  0.45833333  0.12500000       0.007
  -0.29166667  0.45833333  0.12500000       0.007
  -0.20833333  0.45833333  0.12500000       0.007
  -0.12500000  0.45833333  0.12500000       0.007
  -0.45833333 -0.45833333  0.12500000       0.003
  -0.37500000 -0.45833333  0.12500000       0.007
  -0.29166667 -0.45833333  0.12500000       0.007
  -0.20833333 -0.45833333  0.12500000       0.007
  -0.37500000 -0.37500000  0.12500000       0.003
  -0.29166667 -0.37500000  0.12500000       0.007
  -0.20833333 -0.37500000  0.12500000       0.007
  -0.29166667 -0.29166667  0.12500000       0.003
  -0.20833333 -0.29166667  0.12500000       0.007
  -0.20833333 -0.20833333  0.12500000       0.003
   0.20833333  0.20833333  0.20833333       0.001
   0.29166667  0.20833333  0.20833333       0.003
   0.37500000  0.20833333  0.20833333       0.003
   0.45833333  0.20833333  0.20833333       0.003
  -0.45833333  0.20833333  0.20833333       0.003
  -0.37500000  0.20833333  0.20833333       0.003
  -0.29166667  0.20833333  0.20833333       0.003
  -0.20833333  0.20833333  0.20833333       0.003
   0.29166667  0.29166667  0.20833333       0.003
   0.37500000  0.29166667  0.20833333       0.007
   0.45833333  0.29166667  0.20833333       0.007
  -0.45833333  0.29166667  0.20833333       0.007
  -0.37500000  0.29166667  0.20833333       0.007
  -0.29166667  0.29166667  0.20833333       0.007
  -0.20833333  0.29166667  0.20833333       0.007
   0.37500000  0.37500000  0.20833333       0.003
   0.45833333  0.37500000  0.20833333       0.007
  -0.45833333  0.37500000  0.20833333       0.007
  -0.37500000  0.37500000  0.20833333       0.007
  -0.29166667  0.37500000  0.20833333       0.007
  -0.20833333  0.37500000  0.20833333       0.007
   0.45833333  0.45833333  0.20833333       0.003
  -0.45833333  0.45833333  0.20833333       0.007
  -0.37500000  0.45833333  0.20833333       0.007
  -0.29166667  0.45833333  0.20833333       0.007
  -0.20833333  0.45833333  0.20833333       0.007
  -0.45833333 -0.45833333  0.20833333       0.003
  -0.37500000 -0.45833333  0.20833333       0.007
  -0.29166667 -0.45833333  0.20833333       0.007
  -0.37500000 -0.37500000  0.20833333       0.003
  -0.29166667 -0.37500000  0.20833333       0.007
  -0.29166667 -0.29166667  0.20833333       0.003
   0.29166667  0.29166667  0.29166667       0.001
   0.37500000  0.29166667  0.29166667       0.003
   0.45833333  0.29166667  0.29166667       0.003
  -0.45833333  0.29166667  0.29166667       0.003
  -0.37500000  0.29166667  0.29166667       0.003
  -0.29166667  0.29166667  0.29166667       0.003
   0.37500000  0.37500000  0.29166667       0.003
   0.45833333  0.37500000  0.29166667       0.007
  -0.45833333  0.37500000  0.29166667       0.007
  -0.37500000  0.37500000  0.29166667       0.007
  -0.29166667  0.37500000  0.29166667       0.007
   0.45833333  0.45833333  0.29166667       0.003
  -0.45833333  0.45833333  0.29166667       0.007
  -0.37500000  0.45833333  0.29166667       0.007
  -0.29166667  0.45833333  0.29166667       0.007
  -0.45833333 -0.45833333  0.29166667       0.003
  -0.37500000 -0.45833333  0.29166667       0.007
  -0.37500000 -0.37500000  0.29166667       0.003
   0.37500000  0.37500000  0.37500000       0.001
   0.45833333  0.37500000  0.37500000       0.003
  -0.45833333  0.37500000  0.37500000       0.003
  -0.37500000  0.37500000  0.37500000       0.003
   0.45833333  0.45833333  0.37500000       0.003
  -0.45833333  0.45833333  0.37500000       0.007
  -0.37500000  0.45833333  0.37500000       0.007
  -0.45833333 -0.45833333  0.37500000       0.003
   0.45833333  0.45833333  0.45833333       0.001
  -0.45833333  0.45833333  0.45833333       0.003
 
 position of ions in fractional coordinates (direct lattice) 
   0.00000000  0.00000000  0.00000000
 
 position of ions in cartesian coordinates  (Angst):
   0.00000000  0.00000000  0.00000000
 


--------------------------------------------------------------------------------------------------------


 k-point   1 :   0.0417 0.0417 0.0417  plane waves:     169
 k-point   2 :   0.1250 0.0417 0.0417  plane waves:     172
 k-point   3 :   0.2083 0.0417 0.0417  plane waves:     172
 k-point   4 :   0.2917 0.0417 0.0417  plane waves:     180
 k-point   5 :   0.3750 0.0417 0.0417  plane waves:     181
 k-point   6 :   0.4583 0.0417 0.0417  plane waves:     177
 k-point   7 :  -0.4583 0.0417 0.0417  plane waves:     176
 k-point   8 :  -0.3750 0.0417 0.0417  plane waves:     177
 k-point   9 :  -0.2917 0.0417 0.0417  plane waves:     181
 k-point  10 :  -0.2083 0.0417 0.0417  plane waves:     175
 k-point  11 :  -0.1250 0.0417 0.0417  plane waves:     172
 k-point  12 :  -0.0417 0.0417 0.0417  plane waves:     171
 k-point  13 :   0.1250 0.1250 0.0417  plane waves:     173
 k-point  14 :   0.2083 0.1250 0.0417  plane waves:     174
 k-point  15 :   0.2917 0.1250 0.0417  plane waves:     176
 k-point  16 :   0.3750 0.1250 0.0417  plane waves:     182
 k-point  17 :   0.4583 0.1250 0.0417  plane waves:     178
 k-point  18 :  -0.4583 0.1250 0.0417  plane waves:     177
 k-point  19 :  -0.3750 0.1250 0.0417  plane waves:     179
 k-point  20 :  -0.2917 0.1250 0.0417  plane waves:     180
 k-point  21 :  -0.2083 0.1250 0.0417  plane waves:     177
 k-point  22 :  -0.1250 0.1250 0.0417  plane waves:     176
 k-point  23 :  -0.0417 0.1250 0.0417  plane waves:     173
 k-point  24 :   0.2083 0.2083 0.0417  plane waves:     175
 k-point  25 :   0.2917 0.2083 0.0417  plane waves:     176
 k-point  26 :   0.3750 0.2083 0.0417  plane waves:     181
 k-point  27 :   0.4583 0.2083 0.0417  plane waves:     182
 k-point  28 :  -0.4583 0.2083 0.0417  plane waves:     180
 k-point  29 :  -0.3750 0.2083 0.0417  plane waves:     181
 k-point  30 :  -0.2917 0.2083 0.0417  plane waves:     181
 k-point  31 :  -0.2083 0.2083 0.0417  plane waves:     178
 k-point  32 :  -0.1250 0.2083 0.0417  plane waves:     178
 k-point  33 :  -0.0417 0.2083 0.0417  plane waves:     176
 k-point  34 :   0.2917 0.2917 0.0417  plane waves:     178
 k-point  35 :   0.3750 0.2917 0.0417  plane waves:     182
 k-point  36 :   0.4583 0.2917 0.0417  plane waves:     184
 k-point  37 :  -0.4583 0.2917 0.0417  plane waves:     184
 k-point  38 :  -0.3750 0.2917 0.0417  plane waves:     181
 k-point  39 :  -0.2917 0.2917 0.0417  plane waves:     181
 k-point  40 :  -0.2083 0.2917 0.0417  plane waves:     183
 k-point  41 :  -0.1250 0.2917 0.0417  plane waves:     182
 k-point  42 :  -0.0417 0.2917 0.0417  plane waves:     181
 k-point  43 :   0.3750 0.3750 0.0417  plane waves:     184
 k-point  44 :   0.4583 0.3750 0.0417  plane waves:     184
 k-point  45 :  -0.4583 0.3750 0.0417  plane waves:     183
 k-point  46 :  -0.3750 0.3750 0.0417  plane waves:     184
 k-point  47 :  -0.2917 0.3750 0.0417  plane waves:     184
 k-point  48 :  -0.2083 0.3750 0.0417  plane waves:     181
 k-point  49 :  -0.1250 0.3750 0.0417  plane waves:     179
 k-point  50 :  -0.0417 0.3750 0.0417  plane waves:     181
 k-point  51 :   0.4583 0.4583 0.0417  plane waves:     190
 k-point  52 :  -0.4583 0.4583 0.0417  plane waves:     187
 k-point  53 :  -0.3750 0.4583 0.0417  plane waves:     184
 k-point  54 :  -0.2917 0.4583 0.0417  plane waves:     181
 k-point  55 :  -0.2083 0.4583 0.0417  plane waves:     181
 k-point  56 :  -0.1250 0.4583 0.0417  plane waves:     180
 k-point  57 :  -0.0417 0.4583 0.0417  plane waves:     174
 k-point  58 :  -0.4583-0.4583 0.0417  plane waves:     190
 k-point  59 :  -0.3750-0.4583 0.0417  plane waves:     187
 k-point  60 :  -0.2917-0.4583 0.0417  plane waves:     184
 k-point  61 :  -0.2083-0.4583 0.0417  plane waves:     184
 k-point  62 :  -0.1250-0.4583 0.0417  plane waves:     181
 k-point  63 :  -0.3750-0.3750 0.0417  plane waves:     187
 k-point  64 :  -0.2917-0.3750 0.0417  plane waves:     183
 k-point  65 :  -0.2083-0.3750 0.0417  plane waves:     184
 k-point  66 :  -0.1250-0.3750 0.0417  plane waves:     182
 k-point  67 :  -0.2917-0.2917 0.0417  plane waves:     177
 k-point  68 :  -0.2083-0.2917 0.0417  plane waves:     181
 k-point  69 :  -0.1250-0.2917 0.0417  plane waves:     180
 k-point  70 :  -0.2083-0.2083 0.0417  plane waves:     178
 k-point  71 :  -0.1250-0.2083 0.0417  plane waves:     175
 k-point  72 :  -0.1250-0.1250 0.0417  plane waves:     173
 k-point  73 :   0.1250 0.1250 0.1250  plane waves:     172
 k-point  74 :   0.2083 0.1250 0.1250  plane waves:     174
 k-point  75 :   0.2917 0.1250 0.1250  plane waves:     178
 k-point  76 :   0.3750 0.1250 0.1250  plane waves:     181
 k-point  77 :   0.4583 0.1250 0.1250  plane waves:     181
 k-point  78 :  -0.4583 0.1250 0.1250  plane waves:     180
 k-point  79 :  -0.3750 0.1250 0.1250  plane waves:     180
 k-point  80 :  -0.2917 0.1250 0.1250  plane waves:     182
 k-point  81 :  -0.2083 0.1250 0.1250  plane waves:     183
 k-point  82 :  -0.1250 0.1250 0.1250  plane waves:     177
 k-point  83 :   0.2083 0.2083 0.1250  plane waves:     174
 k-point  84 :   0.2917 0.2083 0.1250  plane waves:     178
 k-point  85 :   0.3750 0.2083 0.1250  plane waves:     178
 k-point  86 :   0.4583 0.2083 0.1250  plane waves:     181
 k-point  87 :  -0.4583 0.2083 0.1250  plane waves:     180
 k-point  88 :  -0.3750 0.2083 0.1250  plane waves:     179
 k-point  89 :  -0.2917 0.2083 0.1250  plane waves:     180
 k-point  90 :  -0.2083 0.2083 0.1250  plane waves:     181
 k-point  91 :  -0.1250 0.2083 0.1250  plane waves:     179
 k-point  92 :   0.2917 0.2917 0.1250  plane waves:     176
 k-point  93 :   0.3750 0.2917 0.1250  plane waves:     181
 k-point  94 :   0.4583 0.2917 0.1250  plane waves:     184
 k-point  95 :  -0.4583 0.2917 0.1250  plane waves:     184
 k-point  96 :  -0.3750 0.2917 0.1250  plane waves:     183
 k-point  97 :  -0.2917 0.2917 0.1250  plane waves:     181
 k-point  98 :  -0.2083 0.2917 0.1250  plane waves:     183
 k-point  99 :  -0.1250 0.2917 0.1250  plane waves:     179
 k-point 100 :   0.3750 0.3750 0.1250  plane waves:     184
 k-point 101 :   0.4583 0.3750 0.1250  plane waves:     182
 k-point 102 :  -0.4583 0.3750 0.1250  plane waves:     186
 k-point 103 :  -0.3750 0.3750 0.1250  plane waves:     186
 k-point 104 :  -0.2917 0.3750 0.1250  plane waves:     183
 k-point 105 :  -0.2083 0.3750 0.1250  plane waves:     184
 k-point 106 :  -0.1250 0.3750 0.1250  plane waves:     183
 k-point 107 :   0.4583 0.4583 0.1250  plane waves:     187
 k-point 108 :  -0.4583 0.4583 0.1250  plane waves:     184
 k-point 109 :  -0.3750 0.4583 0.1250  plane waves:     186
 k-point 110 :  -0.2917 0.4583 0.1250  plane waves:     183
 k-point 111 :  -0.2083 0.4583 0.1250  plane waves:     183
 k-point 112 :  -0.1250 0.4583 0.1250  plane waves:     182
 k-point 113 :  -0.4583-0.4583 0.1250  plane waves:     185
 k-point 114 :  -0.3750-0.4583 0.1250  plane waves:     186
 k-point 115 :  -0.2917-0.4583 0.1250  plane waves:     187
 k-point 116 :  -0.2083-0.4583 0.1250  plane waves:     186
 k-point 117 :  -0.3750-0.3750 0.1250  plane waves:     186
 k-point 118 :  -0.2917-0.3750 0.1250  plane waves:     184
 k-point 119 :  -0.2083-0.3750 0.1250  plane waves:     183
 k-point 120 :  -0.2917-0.2917 0.1250  plane waves:     183
 k-point 121 :  -0.2083-0.2917 0.1250  plane waves:     184
 k-point 122 :  -0.2083-0.2083 0.1250  plane waves:     182
 k-point 123 :   0.2083 0.2083 0.2083  plane waves:     172
 k-point 124 :   0.2917 0.2083 0.2083  plane waves:     180
 k-point 125 :   0.3750 0.2083 0.2083  plane waves:     178
 k-point 126 :   0.4583 0.2083 0.2083  plane waves:     180
 k-point 127 :  -0.4583 0.2083 0.2083  plane waves:     180
 k-point 128 :  -0.3750 0.2083 0.2083  plane waves:     180
 k-point 129 :  -0.2917 0.2083 0.2083  plane waves:     184
 k-point 130 :  -0.2083 0.2083 0.2083  plane waves:     184
 k-point 131 :   0.2917 0.2917 0.2083  plane waves:     180
 k-point 132 :   0.3750 0.2917 0.2083  plane waves:     183
 k-point 133 :   0.4583 0.2917 0.2083  plane waves:     183
 k-point 134 :  -0.4583 0.2917 0.2083  plane waves:     182
 k-point 135 :  -0.3750 0.2917 0.2083  plane waves:     181
 k-point 136 :  -0.2917 0.2917 0.2083  plane waves:     183
 k-point 137 :  -0.2083 0.2917 0.2083  plane waves:     185
 k-point 138 :   0.3750 0.3750 0.2083  plane waves:     185
 k-point 139 :   0.4583 0.3750 0.2083  plane waves:     181
 k-point 140 :  -0.4583 0.3750 0.2083  plane waves:     186
 k-point 141 :  -0.3750 0.3750 0.2083  plane waves:     185
 k-point 142 :  -0.2917 0.3750 0.2083  plane waves:     185
 k-point 143 :  -0.2083 0.3750 0.2083  plane waves:     186
 k-point 144 :   0.4583 0.4583 0.2083  plane waves:     184
 k-point 145 :  -0.4583 0.4583 0.2083  plane waves:     184
 k-point 146 :  -0.3750 0.4583 0.2083  plane waves:     187
 k-point 147 :  -0.2917 0.4583 0.2083  plane waves:     186
 k-point 148 :  -0.2083 0.4583 0.2083  plane waves:     188
 k-point 149 :  -0.4583-0.4583 0.2083  plane waves:     184
 k-point 150 :  -0.3750-0.4583 0.2083  plane waves:     184
 k-point 151 :  -0.2917-0.4583 0.2083  plane waves:     186
 k-point 152 :  -0.3750-0.3750 0.2083  plane waves:     183
 k-point 153 :  -0.2917-0.3750 0.2083  plane waves:     183
 k-point 154 :  -0.2917-0.2917 0.2083  plane waves:     186
 k-point 155 :   0.2917 0.2917 0.2917  plane waves:     177
 k-point 156 :   0.3750 0.2917 0.2917  plane waves:     180
 k-point 157 :   0.4583 0.2917 0.2917  plane waves:     184
 k-point 158 :  -0.4583 0.2917 0.2917  plane waves:     182
 k-point 159 :  -0.3750 0.2917 0.2917  plane waves:     184
 k-point 160 :  -0.2917 0.2917 0.2917  plane waves:     180
 k-point 161 :   0.3750 0.3750 0.2917  plane waves:     182
 k-point 162 :   0.4583 0.3750 0.2917  plane waves:     179
 k-point 163 :  -0.4583 0.3750 0.2917  plane waves:     181
 k-point 164 :  -0.3750 0.3750 0.2917  plane waves:     182
 k-point 165 :  -0.2917 0.3750 0.2917  plane waves:     182
 k-point 166 :   0.4583 0.4583 0.2917  plane waves:     180
 k-point 167 :  -0.4583 0.4583 0.2917  plane waves:     183
 k-point 168 :  -0.3750 0.4583 0.2917  plane waves:     185
 k-point 169 :  -0.2917 0.4583 0.2917  plane waves:     187
 k-point 170 :  -0.4583-0.4583 0.2917  plane waves:     180
 k-point 171 :  -0.3750-0.4583 0.2917  plane waves:     182
 k-point 172 :  -0.3750-0.3750 0.2917  plane waves:     185
 k-point 173 :   0.3750 0.3750 0.3750  plane waves:     177
 k-point 174 :   0.4583 0.3750 0.3750  plane waves:     179
 k-point 175 :  -0.4583 0.3750 0.3750  plane waves:     179
 k-point 176 :  -0.3750 0.3750 0.3750  plane waves:     181
 k-point 177 :   0.4583 0.4583 0.3750  plane waves:     178
 k-point 178 :  -0.4583 0.4583 0.3750  plane waves:     177
 k-point 179 :  -0.3750 0.4583 0.3750  plane waves:     179
 k-point 180 :  -0.4583-0.4583 0.3750  plane waves:     180
 k-point 181 :   0.4583 0.4583 0.4583  plane waves:     174
 k-point 182 :  -0.4583 0.4583 0.4583  plane waves:     174

 maximum and minimum number of plane-waves per node :       190      169

 maximum number of plane-waves:       190
 maximum index in each direction: 
   IXMAX=    4   IYMAX=    4   IZMAX=    3
   IXMIN=   -4   IYMIN=   -4   IZMIN=   -4


 serial   3D FFT for wavefunctions
 parallel 3D FFT for charge:
    minimum data exchange during FFTs selected (reduces bandwidth)


 total amount of memory used by VASP MPI-rank0    38706. kBytes
=======================================================================

   base      :      30000. kBytes
   nonl-proj :       4982. kBytes
   fftplans  :        260. kBytes
   grid      :        421. kBytes
   one-center:         15. kBytes
   wavefun   :       3028. kBytes
 
     INWAV:  cpu time      0.0000: real time      0.0001
 Broyden mixing: mesh for mixing (old mesh)
   NGX =  7   NGY =  7   NGZ =  7
  (NGX  = 24   NGY  = 24   NGZ  = 24)
  gives a total of    343 points

 charge density for first step will be calculated from the start-wavefunctions


--------------------------------------------------------------------------------------------------------


 Maximum index for augmentation-charges         1791 (set IRDMAX)


--------------------------------------------------------------------------------------------------------


 initial charge from wavefunction
 First call to EWALD:  gamma=   0.703
 Maximum number of real-space cells 3x 3x 3
 Maximum number of reciprocal cells 3x 3x 3

    FEWALD:  cpu time      0.0005: real time      0.0005


--------------------------------------- Iteration      1(   1)  ---------------------------------------


    POTLOK:  cpu time      0.0017: real time      0.0018
    SETDIJ:  cpu time      0.0007: real time      0.0007
     EDDAV:  cpu time      0.1678: real time      0.1746
       DOS:  cpu time      0.0007: real time      0.0008
    --------------------------------------------
      LOOP:  cpu time      0.1709: real time      0.1778

 eigenvalue-minimisations  :  3640
 total energy-change (2. order) :-0.3691733E+03  (-0.9494439E+03)
 number of electron      10.4999994 magnetization 
 augmentation part       -0.4265874 magnetization 

 Free energy of the ion-electron system (eV)
  ---------------------------------------------------
  alpha Z        PSCENC =        79.50324938
  Ewald energy   TEWEN  =      -998.56820046
  -Hartree energ DENC   =       -46.17882072
  -exchange      EXHF   =         0.00000000
  -V(xc)+E(xc)   XCENC  =        26.04693401
  PAW double counting   =       328.21625817     -336.01744596
  entropy T*S    EENTRO =        -0.00260278
  eigenvalues    EBANDS =      -815.21093037
  atomic energy  EATOM  =      1393.03828842
  Solvation  Ediel_sol  =         0.00000000
  ---------------------------------------------------
  free energy    TOTEN  =      -369.17327031 eV

  energy without entropy =     -369.17066754  energy(sigma->0) =     -369.17196893


--------------------------------------------------------------------------------------------------------




--------------------------------------- Iteration      1(   2)  ---------------------------------------


     EDDAV:  cpu time      0.1725: real time      0.1750
       DOS:  cpu time      0.0008: real time      0.0008
    --------------------------------------------
      LOOP:  cpu time      0.1732: real time      0.1758

 eigenvalue-minimisations  :  3980
 total energy-change (2. order) :-0.3120635E+02  (-0.3060628E+02)
 number of electron      10.4999994 magnetization 
 augmentation part       -0.4265874 magnetization 

 Free energy of the ion-electron system (eV)
  ---------------------------------------------------
  alpha Z        PSCENC =        79.50324938
  Ewald energy   TEWEN  =      -998.56820046
  -Hartree energ DENC   =       -46.17882072
  -exchange      EXHF   =         0.00000000
  -V(xc)+E(xc)   XCENC  =        26.04693401
  PAW double counting   =       328.21625817     -336.01744596
  entropy T*S    EENTRO =        -0.00327305
  eigenvalues    EBANDS =      -846.41660558
  atomic energy  EATOM  =      1393.03828842
  Solvation  Ediel_sol  =         0.00000000
  ---------------------------------------------------
  free energy    TOTEN  =      -400.37961579 eV

  energy without entropy =     -400.37634274  energy(sigma->0) =     -400.37797927


--------------------------------------------------------------------------------------------------------




--------------------------------------- Iteration      1(   3)  ---------------------------------------


     EDDAV:  cpu time      0.1821: real time      0.1849
       DOS:  cpu time      0.0007: real time      0.0007
    --------------------------------------------
      LOOP:  cpu time      0.1828: real time      0.1856

 eigenvalue-minimisations  :  4062
 total energy-change (2. order) :-0.4800638E+00  (-0.4795904E+00)
 number of electron      10.4999994 magnetization 
 augmentation part       -0.4265874 magnetization 

 Free energy of the ion-electron system (eV)
  ---------------------------------------------------
  alpha Z        PSCENC =        79.50324938
  Ewald energy   TEWEN  =      -998.56820046
  -Hartree energ DENC   =       -46.17882072
  -exchange      EXHF   =         0.00000000
  -V(xc)+E(xc)   XCENC  =        26.04693401
  PAW double counting   =       328.21625817     -336.01744596
  entropy T*S    EENTRO =        -0.00337899
  eigenvalues    EBANDS =      -846.89656344
  atomic energy  EATOM  =      1393.03828842
  Solvation  Ediel_sol  =         0.00000000
  ---------------------------------------------------
  free energy    TOTEN  =      -400.85967959 eV

  energy without entropy =     -400.85630060  energy(sigma->0) =     -400.85799010


--------------------------------------------------------------------------------------------------------




--------------------------------------- Iteration      1(   4)  ---------------------------------------


     EDDAV:  cpu time      0.1837: real time      0.1881
       DOS:  cpu time      0.0009: real time      0.0010
    --------------------------------------------
      LOOP:  cpu time      0.1846: real time      0.1891

 eigenvalue-minimisations  :  4066
 total energy-change (2. order) :-0.1146233E-01  (-0.1146075E-01)
 number of electron      10.4999994 magnetization 
 augmentation part       -0.4265874 magnetization 

 Free energy of the ion-electron system (eV)
  ---------------------------------------------------
  alpha Z        PSCENC =        79.50324938
  Ewald energy   TEWEN  =      -998.56820046
  -Hartree energ DENC   =       -46.17882072
  -exchange      EXHF   =         0.00000000
  -V(xc)+E(xc)   XCENC  =        26.04693401
  PAW double counting   =       328.21625817     -336.01744596
  entropy T*S    EENTRO =        -0.00337961
  eigenvalues    EBANDS =      -846.90802515
  atomic energy  EATOM  =      1393.03828842
  Solvation  Ediel_sol  =         0.00000000
  ---------------------------------------------------
  free energy    TOTEN  =      -400.87114192 eV

  energy without entropy =     -400.86776232  energy(sigma->0) =     -400.86945212


--------------------------------------------------------------------------------------------------------




--------------------------------------- Iteration      1(   5)  ---------------------------------------


     EDDAV:  cpu time      0.1931: real time      0.1959
       DOS:  cpu time      0.0008: real time      0.0008
    CHARGE:  cpu time      0.0031: real time      0.0031
    MIXING:  cpu time      0.0002: real time      0.0004
    --------------------------------------------
      LOOP:  cpu time      0.1972: real time      0.2002

 eigenvalue-minimisations  :  4458
 total energy-change (2. order) :-0.5219112E-03  (-0.5219102E-03)
 number of electron      11.0000121 magnetization 
 augmentation part        8.4196040 magnetization 

 Broyden mixing:
  rms(total) = 0.68672E+01    rms(broyden)= 0.68324E+01
  rms(prec ) = 0.25626E+02
  weight for this iteration     100.00

 Free energy of the ion-electron system (eV)
  ---------------------------------------------------
  alpha Z        PSCENC =        79.50324938
  Ewald energy   TEWEN  =      -998.56820046
  -Hartree energ DENC   =       -46.17882072
  -exchange      EXHF   =         0.00000000
  -V(xc)+E(xc)   XCENC  =        26.04693401
  PAW double counting   =       328.21625817     -336.01744596
  entropy T*S    EENTRO =        -0.00337961
  eigenvalues    EBANDS =      -846.90854706
  atomic energy  EATOM  =      1393.03828842
  Solvation  Ediel_sol  =         0.00000000
  ---------------------------------------------------
  free energy    TOTEN  =      -400.87166383 eV

  energy without entropy =     -400.86828422  energy(sigma->0) =     -400.86997403


--------------------------------------------------------------------------------------------------------




--------------------------------------- Iteration      1(   6)  ---------------------------------------


    POTLOK:  cpu time      0.0018: real time      0.0020
    SETDIJ:  cpu time      0.0005: real time      0.0005
     EDDAV:  cpu time      0.1718: real time      0.1744
       DOS:  cpu time      0.0007: real time      0.0008
    CHARGE:  cpu time      0.0031: real time      0.0031
    MIXING:  cpu time      0.0002: real time      0.0002
    --------------------------------------------
      LOOP:  cpu time      0.1781: real time      0.1808

 eigenvalue-minimisations  :  3944
 total energy-change (2. order) : 0.3220416E+03  (-0.1872765E+02)
 number of electron      11.0000126 magnetization 
 augmentation part        8.7374762 magnetization 

 Broyden mixing:
  rms(total) = 0.35566E+01    rms(broyden)= 0.35501E+01
  rms(prec ) = 0.13516E+02
  weight for this iteration     100.00

 eigenvalues of (default mixing * dielectric matrix)
  average eigenvalue GAMMA=   1.9069
  1.9069

 Free energy of the ion-electron system (eV)
  ---------------------------------------------------
  alpha Z        PSCENC =        79.50324938
  Ewald energy   TEWEN  =      -998.56820046
  -Hartree energ DENC   =      -186.25425530
  -exchange      EXHF   =         0.00000000
  -V(xc)+E(xc)   XCENC  =        34.30712485
  PAW double counting   =       699.52442261     -791.20236642
  entropy T*S    EENTRO =        -0.00057256
  eigenvalues    EBANDS =      -309.17780012
  atomic energy  EATOM  =      1393.03828842
  Solvation  Ediel_sol  =         0.00000000
  ---------------------------------------------------
  free energy    TOTEN  =       -78.83010960 eV

  energy without entropy =      -78.82953704  energy(sigma->0) =      -78.82982332


--------------------------------------------------------------------------------------------------------




--------------------------------------- Iteration      1(   7)  ---------------------------------------


    POTLOK:  cpu time      0.0018: real time      0.0020
    SETDIJ:  cpu time      0.0006: real time      0.0005
     EDDAV:  cpu time      0.1805: real time      0.1850
       DOS:  cpu time      0.0008: real time      0.0008
    CHARGE:  cpu time      0.0030: real time      0.0030
    MIXING:  cpu time      0.0001: real time      0.0001
    --------------------------------------------
      LOOP:  cpu time      0.1868: real time      0.1914

 eigenvalue-minimisations  :  4058
 total energy-change (2. order) : 0.1119800E+02  (-0.1067334E+03)
 number of electron      11.0000032 magnetization 
 augmentation part        2.1955275 magnetization 

 Broyden mixing:
  rms(total) = 0.58313E+01    rms(broyden)= 0.58310E+01
  rms(prec ) = 0.20517E+02
  weight for this iteration     100.00

 eigenvalues of (default mixing * dielectric matrix)
  average eigenvalue GAMMA=   1.2352
  1.2352  1.2352

 Free energy of the ion-electron system (eV)
  ---------------------------------------------------
  alpha Z        PSCENC =        79.50324938
  Ewald energy   TEWEN  =      -998.56820046
  -Hartree energ DENC   =      -451.44717446
  -exchange      EXHF   =         0.00000000
  -V(xc)+E(xc)   XCENC  =        46.86537713
  PAW double counting   =      1240.12582058    -1475.69551659
  entropy T*S    EENTRO =        -0.00275312
  eigenvalues    EBANDS =        98.54880012
  atomic energy  EATOM  =      1393.03828842
  Solvation  Ediel_sol  =         0.00000000
  ---------------------------------------------------
  free energy    TOTEN  =       -67.63210901 eV

  energy without entropy =      -67.62935589  energy(sigma->0) =      -67.63073245


--------------------------------------------------------------------------------------------------------




--------------------------------------- Iteration      1(   8)  ---------------------------------------


    POTLOK:  cpu time      0.0018: real time      0.0019
    SETDIJ:  cpu time      0.0005: real time      0.0005
     EDDAV:  cpu time      0.1735: real time      0.1762
       DOS:  cpu time      0.0011: real time      0.0012
    CHARGE:  cpu time      0.0050: real time      0.0050
    MIXING:  cpu time      0.0002: real time      0.0002
    --------------------------------------------
      LOOP:  cpu time      0.1821: real time      0.1850

 eigenvalue-minimisations  :  3656
 total energy-change (2. order) :-0.1560963E+03  (-0.3845729E+03)
 number of electron      11.0000126 magnetization 
 augmentation part        8.7813906 magnetization 

 Broyden mixing:
  rms(total) = 0.53152E+01    rms(broyden)= 0.53144E+01
  rms(prec ) = 0.19818E+02
  weight for this iteration     100.00

 eigenvalues of (default mixing * dielectric matrix)
  average eigenvalue GAMMA=   1.8970
  3.6363  1.0274  1.0274

 Free energy of the ion-electron system (eV)
  ---------------------------------------------------
  alpha Z        PSCENC =        79.50324938
  Ewald energy   TEWEN  =      -998.56820046
  -Hartree energ DENC   =       -92.78926596
  -exchange      EXHF   =         0.00000000
  -V(xc)+E(xc)   XCENC  =        29.29184337
  PAW double counting   =       498.87327367     -537.74943368
  entropy T*S    EENTRO =        -0.00111258
  eigenvalues    EBANDS =      -595.32706437
  atomic energy  EATOM  =      1393.03828842
  Solvation  Ediel_sol  =         0.00000000
  ---------------------------------------------------
  free energy    TOTEN  =      -223.72842222 eV

  energy without entropy =     -223.72730964  energy(sigma->0) =     -223.72786593


--------------------------------------------------------------------------------------------------------




--------------------------------------- Iteration      1(   9)  ---------------------------------------


    POTLOK:  cpu time      0.0026: real time      0.0027
    SETDIJ:  cpu time      0.0007: real time      0.0007
     EDDAV:  cpu time      0.1771: real time      0.1800
       DOS:  cpu time      0.0006: real time      0.0006
    CHARGE:  cpu time      0.0033: real time      0.0033
    MIXING:  cpu time      0.0001: real time      0.0001
    --------------------------------------------
      LOOP:  cpu time      0.1845: real time      0.1874

 eigenvalue-minimisations  :  3784
 total energy-change (2. order) : 0.1495590E+03  (-0.1354381E+02)
 number of electron      11.0000127 magnetization 
 augmentation part        8.7937864 magnetization 

 Broyden mixing:
  rms(total) = 0.35668E+01    rms(broyden)= 0.35668E+01
  rms(prec ) = 0.12939E+02
  weight for this iteration     100.00

 eigenvalues of (default mixing * dielectric matrix)
  average eigenvalue GAMMA=   1.3095
  2.5948  0.7869  0.7869  1.0693

 Free energy of the ion-electron system (eV)
  ---------------------------------------------------
  alpha Z        PSCENC =        79.50324938
  Ewald energy   TEWEN  =      -998.56820046
  -Hartree energ DENC   =      -185.67213904
  -exchange      EXHF   =         0.00000000
  -V(xc)+E(xc)   XCENC  =        33.36094370
  PAW double counting   =       742.24357880     -842.04152380
  entropy T*S    EENTRO =        -0.00039065
  eigenvalues    EBANDS =      -296.03320788
  atomic energy  EATOM  =      1393.03828842
  Solvation  Ediel_sol  =         0.00000000
  ---------------------------------------------------
  free energy    TOTEN  =       -74.16940154 eV

  energy without entropy =      -74.16901089  energy(sigma->0) =      -74.16920622


--------------------------------------------------------------------------------------------------------




--------------------------------------- Iteration      1(  10)  ---------------------------------------


    POTLOK:  cpu time      0.0018: real time      0.0020
    SETDIJ:  cpu time      0.0006: real time      0.0006
     EDDAV:  cpu time      0.1736: real time      0.1775
       DOS:  cpu time      0.0007: real time      0.0008
    CHARGE:  cpu time      0.0030: real time      0.0030
    MIXING:  cpu time      0.0002: real time      0.0002
    --------------------------------------------
      LOOP:  cpu time      0.1798: real time      0.1840

 eigenvalue-minimisations  :  4030
 total energy-change (2. order) : 0.4494776E+02  (-0.3016558E+01)
 number of electron      11.0000123 magnetization 
 augmentation part        8.5599504 magnetization 

 Broyden mixing:
  rms(total) = 0.24557E+01    rms(broyden)= 0.24557E+01
[...]
      9      19.2220      0.00000
     10      20.5786      0.00000

 k-point   158 :      -0.4583    0.2917    0.2917
  band No.  band energies     occupation 
      1      -1.6050      2.00000
      2      -0.9718      2.00000
      3      -0.9551      2.00000
      4      -0.4011      2.00000
      5      -0.1473      2.00000
      6       1.6822      0.00056
      7       8.3115      0.00000
      8      10.0426      0.00000
      9      17.4261      0.00000
     10      19.4496      0.00000

 k-point   159 :      -0.3750    0.2917    0.2917
  band No.  band energies     occupation 
      1      -1.3805      2.00000
      2      -1.1145      2.00000
      3      -0.8551      2.00000
      4      -0.3184      2.00000
      5      -0.0346      2.00000
      6       3.2093      0.00000
      7       6.8842      0.00000
      8       8.8706      0.00000
      9      15.9095      0.00000
     10      18.5551      0.00000

 k-point   160 :      -0.2917    0.2917    0.2917
  band No.  band energies     occupation 
      1      -1.4635      2.00000
      2      -1.2329      2.00000
      3      -0.6756      2.00000
      4      -0.2641      2.00000
      5       0.0985      2.00000
      6       4.4169      0.00000
      7       5.3469      0.00000
      8       9.4693      0.00000
      9      14.7891      0.00000
     10      17.9542      0.00000

 k-point   161 :       0.3750    0.3750    0.2917
  band No.  band energies     occupation 
      1      -2.6240      2.00000
      2      -0.7380      2.00000
      3      -0.7225      2.00000
      4      -0.6360      2.00000
      5       0.0580      2.00000
      6       0.1545      2.00000
      7       8.0783      0.00000
      8      17.7814      0.00000
      9      19.1603      0.00000
     10      19.6159      0.00000

 k-point   162 :       0.4583    0.3750    0.2917
  band No.  band energies     occupation 
      1      -2.1419      2.00000
      2      -0.8366      2.00000
      3      -0.7833      2.00000
      4      -0.5544      2.00000
      5       0.0117      2.00000
      6       0.7743      2.00000
      7       7.4026      0.00000
      8      14.9418      0.00000
      9      17.3271      0.00000
     10      20.7944      0.00000

 k-point   163 :      -0.4583    0.3750    0.2917
  band No.  band energies     occupation 
      1      -1.6388      2.00000
      2      -0.9841      2.00000
      3      -0.8912      2.00000
      4      -0.4155      2.00000
      5      -0.0264      2.00000
      6       1.8194      0.00000
      7       7.0845      0.00000
      8      11.7362      0.00000
      9      15.5549      0.00000
     10      21.3778      0.00000

 k-point   164 :      -0.3750    0.3750    0.2917
  band No.  band energies     occupation 
      1      -1.3107      2.00000
      2      -1.1568      2.00000
      3      -0.9200      2.00000
      4      -0.2944      2.00000
      5       0.0074      2.00000
      6       3.3253      0.00000
      7       7.0136      0.00000
      8       8.9631      0.00000
      9      14.0756      0.00000
     10      20.5599      0.00000

 k-point   165 :      -0.2917    0.3750    0.2917
  band No.  band energies     occupation 
      1      -1.3812      2.00000
      2      -1.2589      2.00000
      3      -0.7397      2.00000
      4      -0.2124      2.00000
      5       0.1003      2.00000
      6       5.2852      0.00000
      7       5.7837      0.00000
      8       8.1156      0.00000
      9      12.9383      0.00000
     10      19.7934      0.00000

 k-point   166 :       0.4583    0.4583    0.2917
  band No.  band energies     occupation 
      1      -1.9152      2.00000
      2      -0.9438      2.00000
      3      -0.7260      2.00000
      4      -0.5245      2.00000
      5       0.1446      2.00000
      6       1.2572      2.00000
      7       6.6059      0.00000
      8      15.1180      0.00000
      9      16.1690      0.00000
     10      18.6116      0.00000

 k-point   167 :      -0.4583    0.4583    0.2917
  band No.  band energies     occupation 
      1      -1.6205      2.00000
      2      -1.0674      2.00000
      3      -0.7867      2.00000
      4      -0.4015      2.00000
      5       0.1131      2.00000
      6       2.2936      0.00000
      7       6.1741      0.00000
      8      13.1667      0.00000
      9      13.8106      0.00000
     10      20.2269      0.00000

 k-point   168 :      -0.3750    0.4583    0.2917
  band No.  band energies     occupation 
      1      -1.3223      2.00000
      2      -1.1874      2.00000
      3      -0.9108      2.00000
      4      -0.2826      2.00000
      5       0.1006      2.00000
      6       3.7725      0.00000
      7       6.0984      0.00000
      8      10.7602      0.00000
      9      11.7483      0.00000
     10      22.5451      0.00000

 k-point   169 :      -0.2917    0.4583    0.2917
  band No.  band energies     occupation 
      1      -1.3343      2.00000
      2      -1.1537      2.00000
      3      -0.9177      2.00000
      4      -0.2342      2.00000
      5       0.1673      2.00000
      6       5.6476      0.00000
      7       6.2214      0.00000
      8       8.3689      0.00000
      9      10.5037      0.00000
     10      22.8303      0.00000

 k-point   170 :      -0.4583   -0.4583    0.2917
  band No.  band energies     occupation 
      1      -1.5433      2.00000
      2      -1.1616      2.00000
      3      -0.6998      2.00000
      4      -0.3517      2.00000
      5       0.1339      2.00000
      6       3.2181      0.00000
      7       5.6294      0.00000
      8      11.2150      0.00000
      9      15.1008      0.00000
     10      18.0940      0.00000

 k-point   171 :      -0.3750   -0.4583    0.2917
  band No.  band energies     occupation 
      1      -1.4051      2.00000
      2      -1.2324      2.00000
      3      -0.7554      2.00000
      4      -0.2525      2.00000
      5       0.1111      2.00000
      6       4.5651      0.00000
      7       5.4645      0.00000
      8       9.5686      0.00000
      9      13.0789      0.00000
     10      19.8674      0.00000

 k-point   172 :      -0.3750   -0.3750    0.2917
  band No.  band energies     occupation 
      1      -1.4317      2.00000
      2      -1.2676      2.00000
      3      -0.6585      2.00000
      4      -0.2015      2.00000
      5       0.0626      2.00000
      6       5.1532      0.00000
      7       5.6355      0.00000
      8       8.0286      0.00000
      9      14.6320      0.00000
     10      17.8838      0.00000

 k-point   173 :       0.3750    0.3750    0.3750
  band No.  band energies     occupation 
      1      -2.5068      2.00000
      2      -0.7081      2.00000
      3      -0.7081      2.00000
      4      -0.2728      2.00000
      5       0.0337      2.00000
      6       0.0337      2.00000
      7       6.9503      0.00000
      8      19.4947      0.00000
      9      19.4947      0.00000
     10      20.8743      0.00000

 k-point   174 :       0.4583    0.3750    0.3750
  band No.  band energies     occupation 
      1      -2.2075      2.00000
      2      -0.7592      2.00000
      3      -0.6809      2.00000
      4      -0.3661      2.00000
      5       0.0127      2.00000
      6       0.6756      2.00000
      7       6.1800      0.00000
      8      16.6580      0.00000
      9      19.4907      0.00000
     10      20.5306      0.00000

 k-point   175 :      -0.4583    0.3750    0.3750
  band No.  band energies     occupation 
      1      -1.8132      2.00000
      2      -0.8898      2.00000
      3      -0.6163      2.00000
      4      -0.5636      2.00000
      5       0.0049      2.00000
      6       1.7904      0.00000
      7       5.7542      0.00000
      8      13.3917      0.00000
      9      17.7719      0.00000
     10      19.5772      0.00000

 k-point   176 :      -0.3750    0.3750    0.3750
  band No.  band energies     occupation 
      1      -1.4718      2.00000
      2      -1.0787      2.00000
      3      -0.7785      2.00000
      4      -0.3861      2.00000
      5       0.0181      2.00000
      6       3.2801      0.00000
      7       5.6426      0.00000
      8      10.4086      0.00000
      9      16.0497      0.00000
     10      18.6168      0.00000

 k-point   177 :       0.4583    0.4583    0.3750
  band No.  band energies     occupation 
      1      -2.1044      2.00000
      2      -0.7846      2.00000
      3      -0.6827      2.00000
      4      -0.2918      2.00000
      5       0.1314      2.00000
      6       1.0157      2.00000
      7       5.3322      0.00000
      8      17.9378      0.00000
      9      17.9794      0.00000
     10      19.5584      0.00000

 k-point   178 :      -0.4583    0.4583    0.3750
  band No.  band energies     occupation 
      1      -1.8593      2.00000
      2      -0.8814      2.00000
      3      -0.6026      2.00000
      4      -0.4874      2.00000
      5       0.1033      2.00000
      6       2.0454      0.00000
      7       4.8398      0.00000
      8      15.2955      0.00000
      9      16.1452      0.00000
     10      20.6237      0.00000

 k-point   179 :      -0.3750    0.4583    0.3750
  band No.  band energies     occupation 
      1      -1.5502      2.00000
      2      -1.0515      2.00000
      3      -0.7219      2.00000
      4      -0.4397      2.00000
      5       0.0861      2.00000
      6       3.4538      0.00000
      7       4.6940      0.00000
      8      12.2641      0.00000
      9      14.4627      0.00000
     10      20.6416      0.00000

 k-point   180 :      -0.4583   -0.4583    0.3750
  band No.  band energies     occupation 
      1      -1.7638      2.00000
      2      -0.9323      2.00000
      3      -0.5606      2.00000
      4      -0.5470      2.00000
      5       0.1210      2.00000
      6       2.7256      0.00000
      7       4.3827      0.00000
      8      14.0499      0.00000
      9      16.7403      0.00000
     10      18.9328      0.00000

 k-point   181 :       0.4583    0.4583    0.4583
  band No.  band energies     occupation 
      1      -2.1485      2.00000
      2      -0.7452      2.00000
      3      -0.7452      2.00000
      4       0.1214      2.00000
      5       0.1214      2.00000
      6       0.9984      2.00000
      7       4.5058      0.00000
      8      19.3368      0.00000
      9      19.3368      0.00000
     10      20.6283      0.00000

 k-point   182 :      -0.4583    0.4583    0.4583
  band No.  band energies     occupation 
      1      -2.0203      2.00000
      2      -0.7951      2.00000
      3      -0.7014      2.00000
      4      -0.1472      2.00000
      5       0.1172      2.00000
      6       1.7913      0.00000
      7       4.1345      0.00000
      8      17.1143      0.00000
      9      18.5151      0.00000
     10      19.8828      0.00000


--------------------------------------------------------------------------------------------------------


 soft charge-density along one line, spin component           1
         0         1         2         3         4         5         6         7         8         9
 total charge-density along one line
 
 pseudopotential strength for first ion, spin component:           1
 -7.632  -0.000   0.000  -0.000   0.000   0.281   0.000  -0.000
 -0.000  -7.632  -0.000  -0.000   0.000   0.000   0.281   0.000
  0.000  -0.000  -7.618  -0.000  -0.000  -0.000   0.000   0.274
 -0.000  -0.000  -0.000  -7.632  -0.000   0.000   0.000   0.000
  0.000   0.000  -0.000  -0.000  -7.618  -0.000  -0.000   0.000
  0.281   0.000  -0.000   0.000  -0.000   1.452  -0.000   0.000
  0.000   0.281   0.000   0.000  -0.000  -0.000   1.452  -0.000
 -0.000   0.000   0.274   0.000   0.000   0.000  -0.000   1.455
  0.000   0.000   0.000   0.281   0.000  -0.000  -0.000  -0.000
 -0.000  -0.000   0.000   0.000   0.274   0.000   0.000  -0.000
  0.000   0.000  -0.000   0.000  -0.000   0.000   0.000  -0.000
 -0.000  -0.000   0.000  -0.000   0.000   0.000   0.000  -0.000
  0.000   0.000  -0.000   0.000  -0.000  -0.000  -0.000   0.000
  0.000   0.000   0.000   0.000  -0.000   0.000  -0.000  -0.000
  0.000   0.000  -0.000   0.000   0.000  -0.000   0.000   0.000
 -0.000  -0.000   0.000  -0.000   0.000   0.000   0.000  -0.000
 -0.000  -0.000  -0.000  -0.000   0.000   0.000   0.000   0.000
 -0.000  -0.000   0.000  -0.000  -0.000   0.000   0.000  -0.000
 total augmentation occupancy for first ion, spin component:           1
  1.894   0.000  -0.000  -0.000   0.000  -0.053   0.000   0.000  -0.000  -0.000  -0.000   0.000   0.000   0.000   0.000   0.000
  0.000   1.894   0.000  -0.000   0.000  -0.000  -0.053  -0.000   0.000  -0.000  -0.000  -0.000   0.000   0.000   0.000   0.000
 -0.000   0.000   1.909  -0.000   0.000  -0.000  -0.000  -0.079  -0.000   0.000   0.000   0.000   0.000   0.000   0.000   0.000
 -0.000  -0.000  -0.000   1.894   0.000   0.000   0.000  -0.000  -0.053   0.000   0.000   0.000   0.000   0.000   0.000   0.000
  0.000  -0.000   0.000  -0.000   1.909  -0.000   0.000  -0.000   0.000  -0.079   0.000   0.000   0.000   0.000   0.000   0.000
 -0.053   0.000   0.000   0.000  -0.000   0.036  -0.000   0.000  -0.000   0.000   0.000   0.000   0.000   0.000   0.000   0.000
  0.000  -0.053   0.000   0.000   0.000   0.000   0.036  -0.000  -0.000  -0.000  -0.000  -0.000   0.000   0.000   0.000   0.000
 -0.000  -0.000  -0.079   0.000   0.000  -0.000  -0.000   0.033  -0.000   0.000  -0.000   0.000   0.000   0.000   0.000   0.000
 -0.000   0.000  -0.000  -0.053   0.000   0.000   0.000   0.000   0.036  -0.000   0.000   0.000   0.000   0.000   0.000   0.000
  0.000   0.000  -0.000  -0.000  -0.079   0.000  -0.000   0.000   0.000   0.033  -0.000   0.000   0.000   0.000   0.000   0.000
  0.000  -0.000   0.000  -0.000   0.000   0.000  -0.000  -0.000   0.000  -0.000   1.019  -0.231   0.000   0.000   0.000   0.000
  0.000   0.000  -0.000   0.000   0.000   0.000  -0.000   0.000   0.000   0.000  -0.231   0.078   0.000   0.000   0.000   0.000
  0.000   0.000   0.000   0.000   0.000   0.000   0.000   0.000   0.000   0.000   0.000   0.000   0.110  -0.000   0.000  -0.007
  0.000   0.000   0.000   0.000   0.000   0.000   0.000   0.000   0.000   0.000   0.000   0.000  -0.000   0.110   0.000  -0.000
  0.000   0.000   0.000   0.000   0.000   0.000   0.000   0.000   0.000   0.000   0.000   0.000   0.000   0.000   0.110   0.000
  0.000   0.000   0.000   0.000   0.000   0.000   0.000   0.000   0.000   0.000   0.000   0.000  -0.007  -0.000   0.000   0.001
  0.000   0.000   0.000   0.000   0.000   0.000   0.000   0.000   0.000   0.000   0.000   0.000  -0.000  -0.007  -0.000   0.000
  0.000   0.000   0.000   0.000   0.000   0.000   0.000   0.000   0.000   0.000   0.000   0.000   0.000   0.000  -0.007   0.000


------------------------ aborting loop because EDIFF is reached ----------------------------------------


    CHARGE:  cpu time      0.0031: real time      0.0031
    FORLOC:  cpu time      0.0001: real time      0.0001
    FORNL :  cpu time      0.0095: real time      0.0112
    STRESS:  cpu time      0.1193: real time      0.1233
    FORCOR:  cpu time      0.0024: real time      0.0024
    FORHAR:  cpu time      0.0004: real time      0.0004
    MIXING:  cpu time      0.0002: real time      0.0002
    OFIELD:  cpu time      0.0000: real time      0.0000

  FORCE on cell =-STRESS in cart. coord.  units (eV):
  Direction    XX          YY          ZZ          XY          YZ          ZX
  --------------------------------------------------------------------------------------
  Alpha Z    79.50325    79.50325    79.50325
  Ewald    -332.85608  -332.85608  -332.85608     0.00000     0.00000    -0.00000
  Hartree   122.06831   122.06831   122.06831     0.00000     0.00000     0.00000
  E(xc)     -62.49698   -62.49698   -62.49698     0.00002     0.00002     0.00002
  Local      97.22563    97.22564    97.22563     0.00076     0.00076     0.00076
  n-local   -38.85126   -40.07568   -39.43800    -0.47382    -0.00875     0.38903
  augment    56.02163    56.02163    56.02163    -0.00105    -0.00105    -0.00105
  Kinetic    75.97216    79.09541    76.76514     1.08051    -0.01947    -1.26094
  Fock        0.00000     0.00000     0.00000     0.00000     0.00000     0.00000
  -------------------------------------------------------------------------------------
  Total      -2.71165    -2.71165    -2.71165    -0.00000    -0.00000    -0.00000
  in kB    -271.53372  -271.53372  -271.53372    -0.00000    -0.00000    -0.00000
  external pressure =     -271.53 kB  Pullay stress =        0.00 kB


 VOLUME and BASIS-vectors are now :
 -----------------------------------------------------------------------------
  energy-cutoff  :      292.00
  volume of cell :       16.00
      direct lattice vectors                 reciprocal lattice vectors
     2.000000000  2.000000000  0.000000000     0.250000000  0.250000000 -0.250000000
     0.000000000  2.000000000  2.000000000    -0.250000000  0.250000000  0.250000000
     2.000000000  0.000000000  2.000000000     0.250000000 -0.250000000  0.250000000

  length of vectors
     2.828427125  2.828427125  2.828427125     0.433012702  0.433012702  0.433012702


 FORCES acting on ions
    electron-ion (+dipol)            ewald-force                    non-local-force                 convergence-correction
 -----------------------------------------------------------------------------------------------
   -.157E-13 -.898E-14 -.266E-13   -.269E-14 -.720E-16 0.310E-15   -.775E-25 -.775E-25 0.103E-24   -.264E-13 -.287E-13 -.268E-13
 -----------------------------------------------------------------------------------------------
   -.157E-13 -.898E-14 -.266E-13   -.269E-14 -.720E-16 0.310E-15   -.775E-25 -.775E-25 0.103E-24   -.264E-13 -.287E-13 -.268E-13
 
 
 POSITION                                       TOTAL-FORCE (eV/Angst)
 -----------------------------------------------------------------------------------
      0.00000      0.00000      0.00000         0.000000      0.000000     -0.000000
 -----------------------------------------------------------------------------------
    total drift:                               -0.000000     -0.000000     -0.000000


--------------------------------------------------------------------------------------------------------



  FREE ENERGIE OF THE ION-ELECTRON SYSTEM (eV)
  ---------------------------------------------------
  free  energy   TOTEN  =        -3.41994949 eV

  energy  without entropy=       -3.41959360  energy(sigma->0) =       -3.41977154
 


--------------------------------------------------------------------------------------------------------


    POTLOK:  cpu time      0.0025: real time      0.0025


--------------------------------------------------------------------------------------------------------


 writing wavefunctions
     LOOP+:  cpu time      4.2985: real time      4.3982
    4ORBIT:  cpu time      0.0000: real time      0.0000

 total amount of memory used by VASP MPI-rank0    38706. kBytes
=======================================================================

   base      :      30000. kBytes
   nonl-proj :       4982. kBytes
   fftplans  :        260. kBytes
   grid      :        421. kBytes
   one-center:         15. kBytes
   wavefun   :       3028. kBytes
 
  
  
 General timing and accounting informations for this job:
 ========================================================
  
                  Total CPU time used (sec):        4.737
                            User time (sec):        4.169
                          System time (sec):        0.568
                         Elapsed time (sec):        5.308
  
                   Maximum memory used (kb):      122028.
                   Average memory used (kb):          N/A
  
                          Minor page faults:        13114
                          Major page faults:            2
                 Voluntary context switches:          220
