<?xml version="1.0" encoding="ISO-8859-1"?>
<modeling>
 <generator>
  <i name="program" type="string">vasp </i>
  <i name="version" type="string">6.3.0  </i>
  <i name="subversion" type="string">20Jan22 (build Sep 29 2023 15:57:01) complex                          parallel </i>
  <i name="platform" type="string">LinuxIFC </i>
  <i name="date" type="string">2023 11 06 </i>
  <i name="time" type="string">17:45:16 </i>
 </generator>
 <incar>
  <i type="string" name="SYSTEM">fcc Cu</i>
  <i type="int" name="ISTART">     0</i>
  <i type="int" name="ICHARG">     0</i>
  <i name="ENCUT">    292.00000000</i>
  <i type="int" name="ISMEAR">     0</i>
  <i name="SIGMA">      0.05000000</i>
  <i type="string" name="GGA">91</i>
 </incar>
 <primitive_cell>
  <structure name="primitive_cell" >
   <crystal>
    <varray name="basis" >
     <v>       2.00000000       2.00000000       0.00000000 </v>
     <v>       0.00000000       2.00000000       2.00000000 </v>
     <v>       2.00000000       0.00000000       2.00000000 </v>
    </varray>
    <i name="volume">     16.00000000 </i>
    <varray name="rec_basis" >
     <v>       0.25000000       0.25000000      -0.25000000 </v>
     <v>      -0.25000000       0.25000000       0.25000000 </v>
     <v>       0.25000000      -0.25000000       0.25000000 </v>
    </varray>
   </crystal>
   <varray name="positions" >
    <v>       0.00000000       0.00000000       0.00000000 </v>
   </varray>
  </structure>
  <varray name="primitive_index" >
   <v type="int" >        1 </v>
  </varray>
 </primitive_cell>
 <kpoints>
  <generation param="Monkhorst-Pack">
   <v type="int" name="divisions">      12       12       12 </v>
   <v name="usershift">      0.00000000       0.00000000       0.00000000 </v>
   <v name="genvec1">      0.08333333       0.00000000       0.00000000 </v>
   <v name="genvec2">      0.00000000       0.08333333       0.00000000 </v>
   <v name="genvec3">      0.00000000       0.00000000       0.08333333 </v>
   <v name="shift">      0.50000000       0.50000000       0.50000000 </v>
  </generation>
  <varray name="kpointlist" >
   <v>       0.04166667       0.04166667       0.04166667 </v>
   <v>       0.12500000       0.04166667       0.04166667 </v>
   <v>       0.20833333       0.04166667       0.04166667 </v>
   <v>       0.29166667       0.04166667       0.04166667 </v>
   <v>       0.37500000       0.04166667       0.04166667 </v>
   <v>       0.45833333       0.04166667       0.04166667 </v>
   <v>      -0.45833333       0.04166667       0.04166667 </v>
   <v>      -0.37500000       0.04166667       0.04166667 </v>
   <v>      -0.29166667       0.04166667       0.04166667 </v>
   <v>      -0.20833333       0.04166667       0.04166667 </v>
   <v>      -0.12500000       0.04166667       0.04166667 </v>
   <v>      -0.04166667       0.04166667       0.04166667 </v>
   <v>       0.12500000       0.12500000       0.04166667 </v>
   <v>       0.20833333       0.12500000       0.04166667 </v>
   <v>       0.29166667       0.12500000       0.04166667 </v>
   <v>       0.37500000       0.12500000       0.04166667 </v>
   <v>       0.45833333       0.12500000       0.04166667 </v>
   <v>      -0.45833333       0.12500000       0.04166667 </v>
   <v>      -0.37500000       0.12500000       0.04166667 </v>
   <v>      -0.29166667       0.12500000       0.04166667 </v>
   <v>      -0.20833333       0.12500000       0.04166667 </v>
   <v>      -0.12500000       0.12500000       0.04166667 </v>
   <v>      -0.04166667       0.12500000       0.04166667 </v>
   <v>       0.20833333       0.20833333       0.04166667 </v>
   <v>       0.29166667       0.20833333       0.04166667 </v>
   <v>       0.37500000       0.20833333       0.04166667 </v>
   <v>       0.45833333       0.20833333       0.04166667 </v>
   <v>      -0.45833333       0.20833333       0.04166667 </v>
   <v>      -0.37500000       0.20833333       0.04166667 </v>
   <v>      -0.29166667       0.20833333       0.04166667 </v>
   <v>      -0.20833333       0.20833333       0.04166667 </v>
   <v>      -0.12500000       0.20833333       0.04166667 </v>
   <v>      -0.04166667       0.20833333       0.04166667 </v>
   <v>       0.29166667       0.29166667       0.04166667 </v>
   <v>       0.37500000       0.29166667       0.04166667 </v>
   <v>       0.45833333       0.29166667       0.04166667 </v>
   <v>      -0.45833333       0.29166667       0.04166667 </v>
   <v>      -0.37500000       0.29166667       0.04166667 </v>
   <v>      -0.29166667       0.29166667       0.04166667 </v>
   <v>      -0.20833333       0.29166667       0.04166667 </v>
   <v>      -0.12500000       0.29166667       0.04166667 </v>
   <v>      -0.04166667       0.29166667       0.04166667 </v>
   <v>       0.37500000       0.37500000       0.04166667 </v>
   <v>       0.45833333       0.37500000       0.04166667 </v>
   <v>      -0.45833333       0.37500000       0.04166667 </v>
   <v>      -0.37500000       0.37500000       0.04166667 </v>
   <v>      -0.29166667       0.37500000       0.04166667 </v>
   <v>      -0.20833333       0.37500000       0.04166667 </v>
   <v>      -0.12500000       0.37500000       0.04166667 </v>
   <v>      -0.04166667       0.37500000       0.04166667 </v>
   <v>       0.45833333       0.45833333       0.04166667 </v>
   <v>      -0.45833333       0.45833333       0.04166667 </v>
   <v>      -0.37500000       0.45833333       0.04166667 </v>
   <v>      -0.29166667       0.45833333       0.04166667 </v>
   <v>      -0.20833333       0.45833333       0.04166667 </v>
   <v>      -0.12500000       0.45833333       0.04166667 </v>
   <v>      -0.04166667       0.45833333       0.04166667 </v>
   <v>      -0.45833333      -0.45833333       0.04166667 </v>
   <v>      -0.37500000      -0.45833333       0.04166667 </v>
   <v>      -0.29166667      -0.45833333       0.04166667 </v>
   <v>      -0.20833333      -0.45833333       0.04166667 </v>
   <v>      -0.12500000      -0.45833333       0.04166667 </v>
   <v>      -0.37500000      -0.37500000       0.04166667 </v>
   <v>      -0.29166667      -0.37500000       0.04166667 </v>
   <v>      -0.20833333      -0.37500000       0.04166667 </v>
   <v>      -0.12500000      -0.37500000       0.04166667 </v>
   <v>      -0.29166667      -0.29166667       0.04166667 </v>
   <v>      -0.20833333      -0.29166667       0.04166667 </v>
   <v>      -0.12500000      -0.29166667       0.04166667 </v>
   <v>      -0.20833333      -0.20833333       0.04166667 </v>
   <v>      -0.12500000      -0.20833333       0.04166667 </v>
   <v>      -0.12500000      -0.12500000       0.04166667 </v>
   <v>       0.12500000       0.12500000       0.12500000 </v>
   <v>       0.20833333       0.12500000       0.12500000 </v>
   <v>       0.29166667       0.12500000       0.12500000 </v>
   <v>       0.37500000       0.12500000       0.12500000 </v>
   <v>       0.45833333       0.12500000       0.12500000 </v>
   <v>      -0.45833333       0.12500000       0.12500000 </v>
   <v>      -0.37500000       0.12500000       0.12500000 </v>
   <v>      -0.29166667       0.12500000       0.12500000 </v>
   <v>      -0.20833333       0.12500000       0.12500000 </v>
   <v>      -0.12500000       0.12500000       0.12500000 </v>
   <v>       0.20833333       0.20833333       0.12500000 </v>
   <v>       0.29166667       0.20833333       0.12500000 </v>
   <v>       0.37500000       0.20833333       0.12500000 </v>
   <v>       0.45833333       0.20833333       0.12500000 </v>
   <v>      -0.45833333       0.20833333       0.12500000 </v>
   <v>      -0.37500000       0.20833333       0.12500000 </v>
   <v>      -0.29166667       0.20833333       0.12500000 </v>
   <v>      -0.20833333       0.20833333       0.12500000 </v>
   <v>      -0.12500000       0.20833333       0.12500000 </v>
   <v>       0.29166667       0.29166667       0.12500000 </v>
   <v>       0.37500000       0.29166667       0.12500000 </v>
   <v>       0.45833333       0.29166667       0.12500000 </v>
   <v>      -0.45833333       0.29166667       0.12500000 </v>
   <v>      -0.37500000       0.29166667       0.12500000 </v>
   <v>      -0.29166667       0.29166667       0.12500000 </v>
   <v>      -0.20833333       0.29166667       0.12500000 </v>
   <v>      -0.12500000       0.29166667       0.12500000 </v>
   <v>       0.37500000       0.37500000       0.12500000 </v>
   <v>       0.45833333       0.37500000       0.12500000 </v>
   <v>      -0.45833333       0.37500000       0.12500000 </v>
   <v>      -0.37500000       0.37500000       0.12500000 </v>
   <v>      -0.29166667       0.37500000       0.12500000 </v>
   <v>      -0.20833333       0.37500000       0.12500000 </v>
   <v>      -0.12500000       0.37500000       0.12500000 </v>
   <v>       0.45833333       0.45833333       0.12500000 </v>
   <v>      -0.45833333       0.45833333       0.12500000 </v>
   <v>      -0.37500000       0.45833333       0.12500000 </v>
   <v>      -0.29166667       0.45833333       0.12500000 </v>
   <v>      -0.20833333       0.45833333       0.12500000 </v>
   <v>      -0.12500000       0.45833333       0.12500000 </v>
   <v>      -0.45833333      -0.45833333       0.12500000 </v>
   <v>      -0.37500000      -0.45833333       0.12500000 </v>
   <v>      -0.29166667      -0.45833333       0.12500000 </v>
   <v>      -0.20833333      -0.45833333       0.12500000 </v>
   <v>      -0.37500000      -0.37500000       0.12500000 </v>
   <v>      -0.29166667      -0.37500000       0.12500000 </v>
   <v>      -0.20833333      -0.37500000       0.12500000 </v>
   <v>      -0.29166667      -0.29166667       0.12500000 </v>
   <v>      -0.20833333      -0.29166667       0.12500000 </v>
   <v>      -0.20833333      -0.20833333       0.12500000 </v>
   <v>       0.20833333       0.20833333       0.20833333 </v>
   <v>       0.29166667       0.20833333       0.20833333 </v>
   <v>       0.37500000       0.20833333       0.20833333 </v>
   <v>       0.45833333       0.20833333       0.20833333 </v>
   <v>      -0.45833333       0.20833333       0.20833333 </v>
   <v>      -0.37500000       0.20833333       0.20833333 </v>
   <v>      -0.29166667       0.20833333       0.20833333 </v>
   <v>      -0.20833333       0.20833333       0.20833333 </v>
   <v>       0.29166667       0.29166667       0.20833333 </v>
   <v>       0.37500000       0.29166667       0.20833333 </v>
   <v>       0.45833333       0.29166667       0.20833333 </v>
   <v>      -0.45833333       0.29166667       0.20833333 </v>
   <v>      -0.37500000       0.29166667       0.20833333 </v>
   <v>      -0.29166667       0.29166667       0.20833333 </v>
   <v>      -0.20833333       0.29166667       0.20833333 </v>
   <v>       0.37500000       0.37500000       0.20833333 </v>
   <v>       0.45833333       0.37500000       0.20833333 </v>
   <v>      -0.45833333       0.37500000       0.20833333 </v>
   <v>      -0.37500000       0.37500000       0.20833333 </v>
   <v>      -0.29166667       0.37500000       0.20833333 </v>
   <v>      -0.20833333       0.37500000       0.20833333 </v>
   <v>       0.45833333       0.45833333       0.20833333 </v>
   <v>      -0.45833333       0.45833333       0.20833333 </v>
   <v>      -0.37500000       0.45833333       0.20833333 </v>
   <v>      -0.29166667       0.45833333       0.20833333 </v>
   <v>      -0.20833333       0.45833333       0.20833333 </v>
   <v>      -0.45833333      -0.45833333       0.20833333 </v>
   <v>      -0.37500000      -0.45833333       0.20833333 </v>
   <v>      -0.29166667      -0.45833333       0.20833333 </v>
   <v>      -0.37500000      -0.37500000       0.20833333 </v>
   <v>      -0.29166667      -0.37500000       0.20833333 </v>
   <v>      -0.29166667      -0.29166667       0.20833333 </v>
   <v>       0.29166667       0.29166667       0.29166667 </v>
   <v>       0.37500000       0.29166667       0.29166667 </v>
   <v>       0.45833333       0.29166667       0.29166667 </v>
   <v>      -0.45833333       0.29166667       0.29166667 </v>
   <v>      -0.37500000       0.29166667       0.29166667 </v>
   <v>      -0.29166667       0.29166667       0.29166667 </v>
   <v>       0.37500000       0.37500000       0.29166667 </v>
   <v>       0.45833333       0.37500000       0.29166667 </v>
   <v>      -0.45833333       0.37500000       0.29166667 </v>
   <v>      -0.37500000       0.37500000       0.29166667 </v>
   <v>      -0.29166667       0.37500000       0.29166667 </v>
   <v>       0.45833333       0.45833333       0.29166667 </v>
   <v>      -0.45833333       0.45833333       0.29166667 </v>
   <v>      -0.37500000       0.45833333       0.29166667 </v>
   <v>      -0.29166667       0.45833333       0.29166667 </v>
   <v>      -0.45833333      -0.45833333       0.29166667 </v>
   <v>      -0.37500000      -0.45833333       0.29166667 </v>
   <v>      -0.37500000      -0.37500000       0.29166667 </v>
   <v>       0.37500000       0.37500000       0.37500000 </v>
   <v>       0.45833333       0.37500000       0.37500000 </v>
   <v>      -0.45833333       0.37500000       0.37500000 </v>
   <v>      -0.37500000       0.37500000       0.37500000 </v>
   <v>       0.45833333       0.45833333       0.37500000 </v>
   <v>      -0.45833333       0.45833333       0.37500000 </v>
   <v>      -0.37500000       0.45833333       0.37500000 </v>
   <v>      -0.45833333      -0.45833333       0.37500000 </v>
   <v>       0.45833333       0.45833333       0.45833333 </v>
   <v>      -0.45833333       0.45833333       0.45833333 </v>
  </varray>
  <varray name="weights" >
   <v>       0.00115741 </v>
   <v>       0.00347222 </v>
   <v>       0.00347222 </v>
   <v>       0.00347222 </v>
   <v>       0.00347222 </v>
   <v>       0.00347222 </v>
   <v>       0.00347222 </v>
   <v>       0.00347222 </v>
   <v>       0.00347222 </v>
   <v>       0.00347222 </v>
   <v>       0.00347222 </v>
   <v>       0.00347222 </v>
   <v>       0.00347222 </v>
   <v>       0.00694444 </v>
   <v>       0.00694444 </v>
   <v>       0.00694444 </v>
   <v>       0.00694444 </v>
   <v>       0.00694444 </v>
   <v>       0.00694444 </v>
   <v>       0.00694444 </v>
   <v>       0.00694444 </v>
   <v>       0.00694444 </v>
   <v>       0.00694444 </v>
   <v>       0.00347222 </v>
   <v>       0.00694444 </v>
   <v>       0.00694444 </v>
   <v>       0.00694444 </v>
   <v>       0.00694444 </v>
   <v>       0.00694444 </v>
   <v>       0.00694444 </v>
   <v>       0.00694444 </v>
   <v>       0.00694444 </v>
   <v>       0.00694444 </v>
   <v>       0.00347222 </v>
   <v>       0.00694444 </v>
   <v>       0.00694444 </v>
   <v>       0.00694444 </v>
   <v>       0.00694444 </v>
   <v>       0.00694444 </v>
   <v>       0.00694444 </v>
   <v>       0.00694444 </v>
   <v>       0.00694444 </v>
   <v>       0.00347222 </v>
   <v>       0.00694444 </v>
   <v>       0.00694444 </v>
   <v>       0.00694444 </v>
   <v>       0.00694444 </v>
   <v>       0.00694444 </v>
   <v>       0.00694444 </v>
   <v>       0.00694444 </v>
   <v>       0.00347222 </v>
   <v>       0.00694444 </v>
   <v>       0.00694444 </v>
   <v>       0.00694444 </v>
   <v>       0.00694444 </v>
   <v>       0.00694444 </v>
   <v>       0.00694444 </v>
   <v>       0.00347222 </v>
   <v>       0.00694444 </v>
   <v>       0.00694444 </v>
   <v>       0.00694444 </v>
   <v>       0.00694444 </v>
   <v>       0.00347222 </v>
   <v>       0.00694444 </v>
   <v>       0.00694444 </v>
   <v>       0.00694444 </v>
   <v>       0.00347222 </v>
   <v>       0.00694444 </v>
   <v>       0.00694444 </v>
   <v>       0.00347222 </v>
   <v>       0.00694444 </v>
   <v>       0.00347222 </v>
   <v>       0.00115741 </v>
   <v>       0.00347222 </v>
   <v>       0.00347222 </v>
   <v>       0.00347222 </v>
   <v>       0.00347222 </v>
   <v>       0.00347222 </v>
   <v>       0.00347222 </v>
   <v>       0.00347222 </v>
   <v>       0.00347222 </v>
   <v>       0.00347222 </v>
   <v>       0.00347222 </v>
   <v>       0.00694444 </v>
   <v>       0.00694444 </v>
   <v>       0.00694444 </v>
   <v>       0.00694444 </v>
   <v>       0.00694444 </v>
   <v>       0.00694444 </v>
   <v>       0.00694444 </v>
   <v>       0.00694444 </v>
   <v>       0.00347222 </v>
   <v>       0.00694444 </v>
   <v>       0.00694444 </v>
   <v>       0.00694444 </v>
   <v>       0.00694444 </v>
   <v>       0.00694444 </v>
   <v>       0.00694444 </v>
   <v>       0.00694444 </v>
   <v>       0.00347222 </v>
   <v>       0.00694444 </v>
   <v>       0.00694444 </v>
   <v>       0.00694444 </v>
   <v>       0.00694444 </v>
   <v>       0.00694444 </v>
   <v>       0.00694444 </v>
   <v>       0.00347222 </v>
   <v>       0.00694444 </v>
   <v>       0.00694444 </v>
   <v>       0.00694444 </v>
   <v>       0.00694444 </v>
   <v>       0.00694444 </v>
   <v>       0.00347222 </v>
   <v>       0.00694444 </v>
   <v>       0.00694444 </v>
   <v>       0.00694444 </v>
   <v>       0.00347222 </v>
   <v>       0.00694444 </v>
   <v>       0.00694444 </v>
   <v>       0.00347222 </v>
   <v>       0.00694444 </v>
   <v>       0.00347222 </v>
   <v>       0.00115741 </v>
   <v>       0.00347222 </v>
   <v>       0.00347222 </v>
   <v>       0.00347222 </v>
   <v>       0.00347222 </v>
   <v>       0.00347222 </v>
   <v>       0.00347222 </v>
   <v>       0.00347222 </v>
   <v>       0.00347222 </v>
   <v>       0.00694444 </v>
   <v>       0.00694444 </v>
   <v>       0.00694444 </v>
   <v>       0.00694444 </v>
   <v>       0.00694444 </v>
   <v>       0.00694444 </v>
   <v>       0.00347222 </v>
   <v>       0.00694444 </v>
   <v>       0.00694444 </v>
   <v>       0.00694444 </v>
   <v>       0.00694444 </v>
   <v>       0.00694444 </v>
   <v>       0.00347222 </v>
   <v>       0.00694444 </v>
   <v>       0.00694444 </v>
   <v>       0.00694444 </v>
   <v>       0.00694444 </v>
   <v>       0.00347222 </v>
   <v>       0.00694444 </v>
   <v>       0.00694444 </v>
   <v>       0.00347222 </v>
   <v>       0.00694444 </v>
   <v>       0.00347222 </v>
   <v>       0.00115741 </v>
   <v>       0.00347222 </v>
   <v>       0.00347222 </v>
   <v>       0.00347222 </v>
   <v>       0.00347222 </v>
   <v>       0.00347222 </v>
   <v>       0.00347222 </v>
   <v>       0.00694444 </v>
   <v>       0.00694444 </v>
   <v>       0.00694444 </v>
   <v>       0.00694444 </v>
   <v>       0.00347222 </v>
   <v>       0.00694444 </v>
   <v>       0.00694444 </v>
   <v>       0.00694444 </v>
   <v>       0.00347222 </v>
   <v>       0.00694444 </v>
   <v>       0.00347222 </v>
   <v>       0.00115741 </v>
   <v>       0.00347222 </v>
   <v>       0.00347222 </v>
   <v>       0.00347222 </v>
   <v>       0.00347222 </v>
   <v>       0.00694444 </v>
   <v>       0.00694444 </v>
   <v>       0.00347222 </v>
   <v>       0.00115741 </v>
   <v>       0.00347222 </v>
  </varray>
 </kpoints>
 <parameters>
  <separator name="general" >
   <i type="string" name="SYSTEM">fcc Cu</i>
   <i type="logical" name="LCOMPAT"> F  </i>
  </separator>
  <separator name="electronic" >
   <i type="string" name="PREC">normal</i>
   <i name="ENMAX">    292.00000000</i>
   <i name="ENAUG">    516.45600000</i>
   <i name="EDIFF">      0.00010000</i>
   <i type="int" name="IALGO">    38</i>
   <i type="int" name="IWAVPR">    10</i>
   <i type="int" name="NBANDS">    10</i>
   <i type="int" name="NBANDSLOW">    -1</i>
   <i type="int" name="NBANDSHIGH">    -1</i>
   <i name="NELECT">     11.00000000</i>
   <i type="int" name="TURBO">     0</i>
   <i type="int" name="IRESTART">     0</i>
   <i type="int" name="NREBOOT">     0</i>
   <i type="int" name="NMIN">     0</i>
   <i name="EREF">      0.00000000</i>
   <separator name="electronic smearing" >
    <i type="int" name="ISMEAR">     0</i>
    <i name="SIGMA">      0.05000000</i>
    <i name="KSPACING">      0.50000000</i>
    <i type="logical" name="KGAMMA"> T  </i>
    <i type="logical" name="KBLOWUP"> T  </i>
   </separator>
   <separator name="electronic projectors" >
    <i type="logical" name="LREAL"> F  </i>
    <v name="ROPT">      0.00000000</v>
    <i type="int" name="LMAXPAW">  -100</i>
    <i type="int" name="LMAXMIX">     2</i>
    <i type="logical" name="NLSPLINE"> F  </i>
   </separator>
   <separator name="electronic startup" >
    <i type="int" name="ISTART">     0</i>
    <i type="int" name="ICHARG">     0</i>
    <i type="int" name="INIWAV">     1</i>
   </separator>
   <separator name="electronic spin" >
    <i type="int" name="ISPIN">     1</i>
    <i type="logical" name="LNONCOLLINEAR"> F  </i>
    <v name="MAGMOM">      1.00000000</v>
    <i name="NUPDOWN">     -1.00000000</i>
    <i type="logical" name="LSORBIT"> F  </i>
    <v name="SAXIS">      0.00000000      0.00000000      1.00000000</v>
    <i type="logical" name="LSPIRAL"> F  </i>
    <v name="QSPIRAL">      0.00000000      0.00000000      0.00000000</v>
    <i type="logical" name="LZEROZ"> F  </i>
   </separator>
   <separator name="electronic exchange-correlation" >
    <i type="logical" name="LASPH"> F  </i>
    <i type="logical" name="LMETAGGA"> F  </i>
   </separator>
   <separator name="electronic convergence" >
    <i type="int" name="NELM">    60</i>
    <i type="int" name="NELMDL">    -5</i>
    <i type="int" name="NELMIN">     2</i>
    <i name="ENINI">    292.00000000</i>
    <separator name="electronic convergence detail" >
     <i type="logical" name="LDIAG"> T  </i>
     <i type="logical" name="LSUBROT"> F  </i>
     <i name="WEIMIN">      0.00000000</i>
     <i name="EBREAK">      0.00000250</i>
     <i name="DEPER">      0.30000000</i>
     <i type="int" name="NRMM">     4</i>
     <i name="TIME">      0.40000000</i>
    </separator>
   </separator>
   <separator name="electronic mixer" >
    <i name="AMIX">      0.40000000</i>
    <i name="BMIX">      1.00000000</i>
    <i name="AMIN">      0.10000000</i>
    <i name="AMIX_MAG">      1.60000000</i>
    <i name="BMIX_MAG">      1.00000000</i>
    <separator name="electronic mixer details" >
     <i type="int" name="IMIX">     4</i>
     <i type="logical" name="MIXFIRST"> F  </i>
     <i type="int" name="MAXMIX">   -45</i>
     <i name="WC">    100.00000000</i>
     <i type="int" name="INIMIX">     1</i>
     <i type="int" name="MIXPRE">     1</i>
     <i type="int" name="MREMOVE">     5</i>
    </separator>
   </separator>
   <separator name="electronic dipolcorrection" >
    <i type="logical" name="LDIPOL"> F  </i>
    <i type="logical" name="LMONO"> F  </i>
    <i type="int" name="IDIPOL">     0</i>
    <i name="EPSILON">      1.00000000</i>
    <v name="DIPOL">   -100.00000000   -100.00000000   -100.00000000</v>
    <i name="EFIELD">      0.00000000</i>
   </separator>
  </separator>
  <separator name="grids" >
   <i type="int" name="NGX">    12</i>
   <i type="int" name="NGY">    12</i>
   <i type="int" name="NGZ">    12</i>
   <i type="int" name="NGXF">    24</i>
   <i type="int" name="NGYF">    24</i>
   <i type="int" name="NGZF">    24</i>
   <i type="logical" name="ADDGRID"> F  </i>
  </separator>
  <separator name="ionic" >
   <i type="int" name="NSW">     0</i>
   <i type="int" name="IBRION">    -1</i>
   <i type="int" name="MDALGO">     0</i>
   <i type="int" name="ISIF">     2</i>
   <i name="PSTRESS">      0.00000000</i>
   <i name="EDIFFG">      0.00100000</i>
   <i type="int" name="NFREE">     0</i>
   <i name="POTIM">      0.50000000</i>
   <i name="SMASS">     -3.00000000</i>
   <i name="SCALEE">      1.00000000</i>
  </separator>
  <separator name="ionic md" >
   <i name="TEBEG">      0.00010000</i>
   <i name="TEEND">      0.00010000</i>
   <i type="int" name="NBLOCK">     1</i>
   <i type="int" name="KBLOCK">     1</i>
   <i type="int" name="NPACO">   256</i>
   <i name="APACO">     10.00000000</i>
  </separator>
  <separator name="symmetry" >
   <i type="int" name="ISYM">     2</i>
   <i name="SYMPREC">      0.00001000</i>
  </separator>
  <separator name="dos" >
   <i type="int" name="LORBIT">     0</i>
   <v name="RWIGS">     -1.00000000</v>
   <i type="int" name="NEDOS">   301</i>
   <i name="EMIN">     10.00000000</i>
   <i name="EMAX">    -10.00000000</i>
   <i name="EFERMI">      0.00000000</i>
  </separator>
  <separator name="writing" >
   <i type="int" name="NWRITE">     2</i>
   <i type="logical" name="LWAVE"> T  </i>
   <i type="logical" name="LDOWNSAMPLE"> F  </i>
   <i type="logical" name="LCHARG"> T  </i>
   <i type="logical" name="LPARD"> F  </i>
   <i type="logical" name="LVTOT"> F  </i>
   <i type="logical" name="LVHAR"> F  </i>
   <i type="logical" name="LELF"> F  </i>
   <i type="logical" name="LOPTICS"> F  </i>
   <v name="STM">      0.00000000      0.00000000      0.00000000      0.00000000      0.00000000      0.00000000      0.00000000</v>
  </separator>
  <separator name="performance" >
   <i type="int" name="NPAR">     2</i>
   <i type="int" name="NSIM">     4</i>
   <i type="int" name="NBLK">    -1</i>
   <i type="logical" name="LPLANE"> T  </i>
   <i type="logical" name="LSCALAPACK"> T  </i>
   <i type="logical" name="LSCAAWARE"> F  </i>
   <i type="logical" name="LSCALU"> F  </i>
   <i type="logical" name="LASYNC"> F  </i>
   <i type="logical" name="LORBITALREAL"> F  </i>
  </separator>
  <separator name="miscellaneous" >
   <i type="int" name="IDIOT">     3</i>
   <i type="int" name="PHON_NSTRUCT">    -1</i>
   <i type="logical" name="LMUSIC"> F  </i>
   <v name="POMASS">     63.54600000</v>
   <v name="DARWINR">      0.00000000</v>
   <v name="DARWINV">      1.00000000</v>
   <i type="logical" name="LCORR"> T  </i>
  </separator>
  <i type="logical" name="GGA_COMPAT"> T  </i>
  <i type="logical" name="LBERRY"> F  </i>
  <i type="int" name="ICORELEVEL">     0</i>
  <i type="logical" name="LDAU"> F  </i>
  <i type="int" name="I_CONSTRAINED_M">     0</i>
  <separator name="electronic exchange-correlation" >
   <i type="string" name="GGA">91</i>
   <i type="int" name="VOSKOWN">     0</i>
   <i type="logical" name="LHFCALC"> F  </i>
   <i type="string" name="PRECFOCK"></i>
   <i type="logical" name="LSYMGRAD"> F  </i>
   <i type="logical" name="LHFONE"> F  </i>
   <i type="logical" name="LRHFCALC"> F  </i>
   <i type="logical" name="LTHOMAS"> F  </i>
   <i type="logical" name="LMODELHF"> F  </i>
   <i type="logical" name="LFOCKACE"> F  </i>
   <i name="ENCUT4O">     -1.00000000</i>
   <i type="int" name="EXXOEP">     0</i>
   <i type="int" name="FOURORBIT">     0</i>
   <i name="AEXX">      0.00000000</i>
   <i name="HFALPHA">      0.00000000</i>
   <i name="MCALPHA">      0.00000000</i>
   <i name="ALDAX">      1.00000000</i>
   <i name="AGGAX">      1.00000000</i>
   <i name="ALDAC">      1.00000000</i>
   <i name="AGGAC">      1.00000000</i>
   <i type="int" name="NKREDX">     1</i>
   <i type="int" name="NKREDY">     1</i>
   <i type="int" name="NKREDZ">     1</i>
   <i type="logical" name="SHIFTRED"> F  </i>
   <i type="logical" name="ODDONLY"> F  </i>
   <i type="logical" name="EVENONLY"> F  </i>
   <i type="int" name="LMAXFOCK">     0</i>
   <i type="int" name="NMAXFOCKAE">     0</i>
   <i type="logical" name="LFOCKAEDFT"> F  </i>
   <i name="HFSCREEN">      0.00000000</i>
   <i name="HFSCREENC">      0.00000000</i>
   <i type="int" name="NBANDSGWLOW">     0</i>
  </separator>
  <separator name="vdW DFT" >
   <i type="logical" name="LUSE_VDW"> F  </i>
   <i name="Zab_VDW">     -0.84910000</i>
   <i name="PARAM1">      0.12340000</i>
   <i name="PARAM2">      1.00000000</i>
   <i name="PARAM3">      0.00000000</i>
  </separator>
  <separator name="model GW" >
   <i type="int" name="MODEL_GW">     0</i>
   <i name="MODEL_EPS0">      9.60000000</i>
   <i name="MODEL_ALPHA">      1.00000000</i>
  </separator>
  <separator name="linear response parameters" >
   <i type="logical" name="LEPSILON"> F  </i>
   <i type="logical" name="LRPA"> F  </i>
   <i type="logical" name="LNABLA"> F  </i>
   <i type="logical" name="LVEL"> F  </i>
   <i name="CSHIFT">      0.10000000</i>
   <i name="OMEGAMAX">     -1.00000000</i>
   <i name="DEG_THRESHOLD">      0.00200000</i>
   <i name="RTIME">     -0.10000000</i>
   <i name="WPLASMAI">      0.00000000</i>
   <v name="DFIELD">      0.00000000      0.00000000      0.00000000</v>
   <v name="WPLASMA">      0.00000000      0.00000000      0.00000000      0.00000000      0.00000000      0.00000000      0.00000000      0.00000000      0.00000000</v>
  </separator>
  <separator name="orbital magnetization" >
   <i type="logical" name="NUCIND"> F  </i>
   <v name="MAGPOS">      0.00000000      0.00000000      0.00000000</v>
   <i type="logical" name="LNICSALL"> T  </i>
   <i type="logical" name="ORBITALMAG"> F  </i>
   <i type="logical" name="LMAGBLOCH"> F  </i>
   <i type="logical" name="LCHIMAG"> F  </i>
   <i type="logical" name="LGAUGE"> T  </i>
   <i type="int" name="MAGATOM">     0</i>
   <v name="MAGDIPOL">      0.00000000      0.00000000      0.00000000</v>
   <v name="AVECCONST">      0.00000000      0.00000000      0.00000000</v>
  </separator>
  <separator name="response functions" >
   <i type="logical" name="LFINITE_TEMPERATURE"> F  </i>
   <i type="logical" name="LADDER"> F  </i>
   <i type="logical" name="LRPAFORCE"> F  </i>
   <i type="logical" name="LFXC"> F  </i>
   <i type="logical" name="LHARTREE"> T  </i>
   <i type="int" name="IBSE">     0</i>
   <v type="int" name="KPOINT">    -1     0     0     0</v>
   <i type="logical" name="LTCTC"> F  </i>
   <i type="logical" name="LTCTE"> F  </i>
   <i type="logical" name="LTETE"> F  </i>
   <i type="logical" name="LTRIPLET"> F  </i>
   <i type="logical" name="LFXCEPS"> F  </i>
   <i type="logical" name="LFXHEG"> F  </i>
   <i type="int" name="NATURALO">     2</i>
   <i type="logical" name="LHOLEGF"> F  </i>
   <i type="logical" name="L2ORDER"> F  </i>
   <i type="logical" name="LDMP1"> F  </i>
   <i type="logical" name="LMP2LT"> F  </i>
   <i type="logical" name="LSMP2LT"> F  </i>
   <i type="logical" name="LGWLF"> F  </i>
   <i name="ENCUTGW">     -2.00000000</i>
   <i name="ENCUTGWSOFT">     -2.00000000</i>
   <i name="ENCUTLF">     -1.00000000</i>
   <i type="logical" name="LESF_SPLINES"> F  </i>
   <i type="int" name="LMAXMP2">    -1</i>
   <i name="SCISSOR">      0.00000000</i>
   <i type="int" name="NOMEGA">     0</i>
   <i type="int" name="NOMEGAR">     0</i>
   <i type="int" name="NBANDSGW">    -1</i>
   <i type="int" name="NBANDSO">    -1</i>
   <i type="int" name="NBANDSV">    -1</i>
   <i type="int" name="NELMGW">     1</i>
   <i type="int" name="NELMHF">     1</i>
   <i type="int" name="DIM">     3</i>
   <i type="int" name="IESPILON">     4</i>
   <i type="int" name="ANTIRES">     0</i>
   <i name="OMEGAMAX">    -30.00000000</i>
   <i name="OMEGAMIN">    -30.00000000</i>
   <i name="OMEGATL">   -200.00000000</i>
   <i type="int" name="OMEGAGRID">     0</i>
   <i name="CSHIFT">     -0.10000000</i>
   <i type="logical" name="LSELFENERGY"> F  </i>
   <i type="logical" name="LSPECTRAL"> F  </i>
   <i type="logical" name="LSPECTRALGW"> F  </i>
   <i type="logical" name="LSINGLES"> F  </i>
   <i type="logical" name="LFERMIGW"> F  </i>
   <i type="logical" name="ODDONLYGW"> F  </i>
   <i type="logical" name="EVENONLYGW"> F  </i>
   <i type="int" name="NKREDLFX">     1</i>
   <i type="int" name="NKREDLFY">     1</i>
   <i type="int" name="NKREDLFZ">     1</i>
   <i type="int" name="MAXMEM">  2800</i>
   <i type="int" name="TELESCOPE">     0</i>
   <i type="int" name="NTAUPAR">    -1</i>
   <i type="int" name="NOMEGAPAR">    -1</i>
   <i name="DAMP_NEWTON">      0.80000001</i>
   <i name="LAMBDA">      1.00000000</i>
  </separator>
  <separator name="External order field" >
   <i name="OFIELD_KAPPA">      0.00000000</i>
   <v name="OFIELD_K">      0.00000000      0.00000000      0.00000000</v>
   <i name="OFIELD_Q6_NEAR">      0.00000000</i>
   <i name="OFIELD_Q6_FAR">      0.00000000</i>
   <i name="OFIELD_A">      0.00000000</i>
  </separator>
  <separator name="optional k-points parameters" >
   <i type="int" name="KPOINTS_OPT_MODE">     1</i>
   <i type="logical" name="LKPOINTS_OPT"> F  </i>
  </separator>
 </parameters>
 <atominfo>
  <atoms>       1 </atoms>
  <types>       1 </types>
  <array name="atoms" >
   <dimension dim="1">ion</dimension>
   <field type="string">element</field>
   <field type="int">atomtype</field>
   <set>
    <rc><c>Cu</c><c>   1</c></rc>
   </set>
  </array>
  <array name="atomtypes" >
   <dimension dim="1">type</dimension>
   <field type="int">atomspertype</field>
   <field type="string">element</field>
   <field>mass</field>
   <field>valence</field>
   <field type="string">pseudopotential</field>
   <set>
    <rc><c>   1</c><c>Cu</c><c>     63.54600000</c><c>     11.00000000</c><c> PAW_GGA Cu 05Jan2001                   </c></rc>
   </set>
  </array>
 </atominfo>
 <structure name="initialpos" >
  <crystal>
   <varray name="basis" >
    <v>       2.00000000       2.00000000       0.00000000 </v>
    <v>       0.00000000       2.00000000       2.00000000 </v>
    <v>       2.00000000       0.00000000       2.00000000 </v>
   </varray>
   <i name="volume">     16.00000000 </i>
   <varray name="rec_basis" >
    <v>       0.25000000       0.25000000      -0.25000000 </v>
    <v>      -0.25000000       0.25000000       0.25000000 </v>
    <v>       0.25000000      -0.25000000       0.25000000 </v>
   </varray>
  </crystal>
  <varray name="positions" >
   <v>       0.00000000       0.00000000       0.00000000 </v>
  </varray>
 </structure>
 <calculation>
  <scstep>
   <time name="dav">    0.17    0.17</time>
   <time name="total">    0.17    0.18</time>
   <energy>
    <i name="alphaZ">     79.50324938 </i>
    <i name="ewald">   -998.56820046 </i>
    <i name="hartreedc">    -46.17882072 </i>
    <i name="XCdc">     26.04693401 </i>
    <i name="pawpsdc">    328.21625817 </i>
    <i name="pawaedc">   -336.01744596 </i>
    <i name="eentropy">     -0.00260278 </i>
    <i name="bandstr">   -815.21093037 </i>
    <i name="atom">   1393.03828842 </i>
    <i name="e_fr_energy">   -369.17327031 </i>
    <i name="e_wo_entrp">   -369.17066754 </i>
    <i name="e_0_energy">   -369.17196893 </i>
   </energy>
  </scstep>
  <scstep>
   <time name="dav">    0.17    0.18</time>
   <time name="total">    0.17    0.18</time>
   <energy>
    <i name="e_fr_energy">   -400.37961579 </i>
    <i name="e_wo_entrp">   -400.37634274 </i>
    <i name="e_0_energy">   -400.37797927 </i>
   </energy>
  </scstep>
  <scstep>
   <time name="dav">    0.18    0.18</time>
   <time name="total">    0.18    0.19</time>
   <energy>
    <i name="e_fr_energy">   -400.85967959 </i>
    <i name="e_wo_entrp">   -400.85630060 </i>
    <i name="e_0_energy">   -400.85799010 </i>
   </energy>
  </scstep>
  <scstep>
   <time name="dav">    0.18    0.19</time>
   <time name="total">    0.18    0.19</time>
   <energy>
    <i name="e_fr_energy">   -400.87114192 </i>
    <i name="e_wo_entrp">   -400.86776232 </i>
    <i name="e_0_energy">   -400.86945212 </i>
   </energy>
  </scstep>
  <scstep>
   <time name="dav">    0.19    0.20</time>
   <time name="total">    0.20    0.20</time>
   <energy>
    <i name="e_fr_energy">   -400.87166383 </i>
    <i name="e_wo_entrp">   -400.86828422 </i>
    <i name="e_0_energy">   -400.86997403 </i>
   </energy>
  </scstep>
  <scstep>
   <time name="dav">    0.17    0.17</time>
   <time name="total">    0.18    0.18</time>
   <energy>
    <i name="e_fr_energy">    -78.83010960 </i>
    <i name="e_wo_entrp">    -78.82953704 </i>
    <i name="e_0_energy">    -78.82982332 </i>
   </energy>
  </scstep>
  <scstep>
   <time name="dav">    0.18    0.18</time>
   <time name="total">    0.19    0.19</time>
   <energy>
    <i name="e_fr_energy">    -67.63210901 </i>
    <i name="e_wo_entrp">    -67.62935589 </i>
    <i name="e_0_energy">    -67.63073245 </i>
   </energy>
  </scstep>
  <scstep>
   <time name="dav">    0.17    0.18</time>
   <time name="total">    0.18    0.19</time>
   <energy>
    <i name="e_fr_energy">   -223.72842222 </i>
    <i name="e_wo_entrp">   -223.72730964 </i>
    <i name="e_0_energy">   -223.72786593 </i>
   </energy>
  </scstep>
  <scstep>
   <time name="dav">    0.18    0.18</time>
   <time name="total">    0.18    0.19</time>
   <energy>
    <i name="e_fr_energy">    -74.16940154 </i>
    <i name="e_wo_entrp">    -74.16901089 </i>
    <i name="e_0_energy">    -74.16920622 </i>
   </energy>
  </scstep>
  <scstep>
   <time name="dav">    0.17    0.18</time>
   <time name="total">    0.18    0.18</time>
   <energy>
    <i name="e_fr_energy">    -29.22164560 </i>
    <i name="e_wo_entrp">    -29.22146951 </i>
    <i name="e_0_energy">    -29.22155755 </i>
   </energy>
  </scstep>
  <scstep>
   <time name="dav">    0.17    0.17</time>
   <time name="total">    0.18    0.18</time>
   <energy>
    <i name="e_fr_energy">    -28.61452942 </i>
    <i name="e_wo_entrp">    -28.61435480 </i>
    <i name="e_0_energy">    -28.61444211 </i>
   </energy>
  </scstep>
  <scstep>
   <time name="dav">    0.18    0.18</time>
   <time name="total">    0.19    0.19</time>
   <energy>
    <i name="e_fr_energy">    -27.58019111 </i>
    <i name="e_wo_entrp">    -27.58001797 </i>
    <i name="e_0_energy">    -27.58010454 </i>
   </energy>
  </scstep>
  <scstep>
   <time name="dav">    0.17    0.18</time>
   <time name="total">    0.18    0.18</time>
   <energy>
    <i name="e_fr_energy">     -4.92686266 </i>
    <i name="e_wo_entrp">     -4.92535896 </i>
    <i name="e_0_energy">     -4.92611081 </i>
   </energy>
  </scstep>
  <scstep>
   <time name="dav">    0.17    0.18</time>
   <time name="total">    0.18    0.19</time>
   <energy>
    <i name="e_fr_energy">     -4.67784134 </i>
    <i name="e_wo_entrp">     -4.67733007 </i>
    <i name="e_0_energy">     -4.67758571 </i>
   </energy>
  </scstep>
  <scstep>
   <time name="dav">    0.18    0.18</time>
   <time name="total">    0.18    0.19</time>
   <energy>
    <i name="e_fr_energy">     -3.86894288 </i>
    <i name="e_wo_entrp">     -3.86832454 </i>
    <i name="e_0_energy">     -3.86863371 </i>
   </energy>
  </scstep>
  <scstep>
   <time name="dav">    0.17    0.18</time>
   <time name="total">    0.18    0.18</time>
   <energy>
    <i name="e_fr_energy">     -3.59757330 </i>
    <i name="e_wo_entrp">     -3.59696462 </i>
    <i name="e_0_energy">     -3.59726896 </i>
   </energy>
  </scstep>
  <scstep>
   <time name="dav">    0.17    0.18</time>
   <time name="total">    0.18    0.19</time>
   <energy>
    <i name="e_fr_energy">     -3.43809807 </i>
    <i name="e_wo_entrp">     -3.43774920 </i>
    <i name="e_0_energy">     -3.43792364 </i>
   </energy>
  </scstep>
  <scstep>
   <time name="dav">    0.18    0.18</time>
   <time name="total">    0.18    0.19</time>
   <energy>
    <i name="e_fr_energy">     -3.42442467 </i>
    <i name="e_wo_entrp">     -3.42393434 </i>
    <i name="e_0_energy">     -3.42417950 </i>
   </energy>
  </scstep>
  <scstep>
   <time name="dav">    0.19    0.19</time>
   <time name="total">    0.19    0.20</time>
   <energy>
    <i name="e_fr_energy">     -3.43729391 </i>
    <i name="e_wo_entrp">     -3.43696519 </i>
    <i name="e_0_energy">     -3.43712955 </i>
   </energy>
  </scstep>
  <scstep>
   <time name="dav">    0.17    0.18</time>
   <time name="total">    0.18    0.18</time>
   <energy>
    <i name="e_fr_energy">     -3.42490439 </i>
    <i name="e_wo_entrp">     -3.42457381 </i>
    <i name="e_0_energy">     -3.42473910 </i>
   </energy>
  </scstep>
  <scstep>
   <time name="dav">    0.18    0.18</time>
   <time name="total">    0.18    0.19</time>
   <energy>
    <i name="e_fr_energy">     -3.42263323 </i>
    <i name="e_wo_entrp">     -3.42229979 </i>
    <i name="e_0_energy">     -3.42246651 </i>
   </energy>
  </scstep>
  <scstep>
   <time name="dav">    0.18    0.18</time>
   <time name="total">    0.18    0.19</time>
   <energy>
    <i name="e_fr_energy">     -3.42003482 </i>
    <i name="e_wo_entrp">     -3.41968208 </i>
    <i name="e_0_energy">     -3.41985845 </i>
   </energy>
  </scstep>
  <scstep>
   <time name="dav">    0.12    0.12</time>
   <time name="total">    0.12    0.13</time>
   <energy>
    <i name="alphaZ">     79.50324938 </i>
    <i name="ewald">   -998.56820046 </i>
    <i name="hartreedc">   -366.75167626 </i>
    <i name="XCdc">     42.15412459 </i>
    <i name="pawpsdc">   1068.84193082 </i>
    <i name="pawaedc">  -1213.44237870 </i>
    <i name="eentropy">     -0.00035589 </i>
    <i name="bandstr">     -8.19493137 </i>
    <i name="atom">   1393.03828842 </i>
    <i name="e_fr_energy">     -3.41994949 </i>
    <i name="e_wo_entrp">     -3.41959360 </i>
    <i name="e_0_energy">     -3.41977154 </i>
   </energy>
  </scstep>
  <structure>
   <crystal>
    <varray name="basis" >
     <v>       2.00000000       2.00000000       0.00000000 </v>
     <v>       0.00000000       2.00000000       2.00000000 </v>
     <v>       2.00000000       0.00000000       2.00000000 </v>
    </varray>
    <i name="volume">     16.00000000 </i>
    <varray name="rec_basis" >
     <v>       0.25000000       0.25000000      -0.25000000 </v>
     <v>      -0.25000000       0.25000000       0.25000000 </v>
     <v>       0.25000000      -0.25000000       0.25000000 </v>
    </varray>
   </crystal>
   <varray name="positions" >
    <v>       0.00000000       0.00000000       0.00000000 </v>
   </varray>
  </structure>
  <varray name="forces" >
   <v>       0.00000000       0.00000000      -0.00000000 </v>
  </varray>
  <varray name="stress" >
   <v>    -271.53372197      -0.00000000      -0.00000000 </v>
   <v>      -0.00000000    -271.53372197      -0.00000000 </v>
   <v>      -0.00000000      -0.00000000    -271.53372197 </v>
  </varray>
  <energy>
   <i name="e_fr_energy">     -3.41994949 </i>
   <i name="e_wo_entrp">     -3.41959360 </i>
   <i name="e_0_energy">     -3.41977154 </i>
  </energy>
  <time name="totalsc">    4.30    4.40</time>
  <eigenvalues>
   <array>
    <dimension dim="1">band</dimension>
    <dimension dim="2">kpoint</dimension>
    <dimension dim="3">spin</dimension>
    <field>eigene</field>
    <field>occ</field>
    <set>
     <set comment="spin 1">
      <set comment="kpoint 1">
       <r>   -5.6664    1.0000 </r>
       <r>   -0.7467    1.0000 </r>
       <r>   -0.7311    1.0000 </r>
       <r>   -0.7311    1.0000 </r>
       <r>   -0.2249    1.0000 </r>
       <r>   -0.2249    1.0000 </r>
       <r>   21.0407    0.0000 </r>
       <r>   22.0350    0.0000 </r>
       <r>   22.0350    0.0000 </r>
       <r>   22.0501    0.0000 </r>
      </set>
      <set comment="kpoint 2">
       <r>   -5.3960    1.0000 </r>
       <r>   -0.7894    1.0000 </r>
       <r>   -0.6952    1.0000 </r>
       <r>   -0.6876    1.0000 </r>
       <r>   -0.2570    1.0000 </r>
       <r>   -0.2158    1.0000 </r>
       <r>   18.5685    0.0000 </r>
       <r>   19.9823    0.0000 </r>
       <r>   22.3399    0.0000 </r>
       <r>   22.3542    0.0000 </r>
      </set>
      <set comment="kpoint 3">
       <r>   -4.7372    1.0000 </r>
       <r>   -0.8601    1.0000 </r>
       <r>   -0.6360    1.0000 </r>
       <r>   -0.6327    1.0000 </r>
       <r>   -0.2734    1.0000 </r>
       <r>   -0.1867    1.0000 </r>
       <r>   14.7562    0.0000 </r>
       <r>   19.1098    0.0000 </r>
       <r>   21.7128    0.0000 </r>
       <r>   22.2640    0.0000 </r>
      </set>
      <set comment="kpoint 4">
       <r>   -3.7605    1.0000 </r>
       <r>   -0.8752    1.0000 </r>
       <r>   -0.6419    1.0000 </r>
       <r>   -0.6294    1.0000 </r>
       <r>   -0.1963    1.0000 </r>
       <r>   -0.0826    1.0000 </r>
       <r>   11.1865    0.0000 </r>
       <r>   18.5282    0.0000 </r>
       <r>   20.9836    0.0000 </r>
       <r>   21.7772    0.0000 </r>
      </set>
      <set comment="kpoint 5">
       <r>   -2.7273    1.0000 </r>
       <r>   -0.6977    1.0000 </r>
       <r>   -0.6810    1.0000 </r>
       <r>   -0.5930    1.0000 </r>
       <r>   -0.0490    1.0000 </r>
       <r>    0.0908    1.0000 </r>
       <r>    7.9659    0.0000 </r>
       <r>   18.2683    0.0000 </r>
       <r>   20.2488    0.0000 </r>
       <r>   21.1060    0.0000 </r>
      </set>
      <set comment="kpoint 6">
       <r>   -2.1843    1.0000 </r>
       <r>   -0.7454    1.0000 </r>
       <r>   -0.7265    1.0000 </r>
       <r>   -0.0249    1.0000 </r>
       <r>    0.0800    1.0000 </r>
       <r>    0.7180    1.0000 </r>
       <r>    5.2367    0.0000 </r>
       <r>   18.3539    0.0000 </r>
       <r>   19.5223    0.0000 </r>
       <r>   20.5190    0.0000 </r>
      </set>
      <set comment="kpoint 7">
       <r>   -2.0946    1.0000 </r>
       <r>   -0.7621    1.0000 </r>
       <r>   -0.7370    1.0000 </r>
       <r>    0.0377    1.0000 </r>
       <r>    0.1341    1.0000 </r>
       <r>    1.4593    0.9978 </r>
       <r>    4.0786    0.0000 </r>
       <r>   18.7829    0.0000 </r>
       <r>   18.9577    0.0000 </r>
       <r>   20.1854    0.0000 </r>
      </set>
      <set comment="kpoint 8">
       <r>   -2.2959    1.0000 </r>
       <r>   -0.7369    1.0000 </r>
       <r>   -0.7088    1.0000 </r>
       <r>   -0.1814    1.0000 </r>
       <r>    0.0955    1.0000 </r>
       <r>    0.3481    1.0000 </r>
       <r>    6.0707    0.0000 </r>
       <r>   18.6904    0.0000 </r>
       <r>   19.4219    0.0000 </r>
       <r>   20.2719    0.0000 </r>
      </set>
      <set comment="kpoint 9">
       <r>   -3.0446    1.0000 </r>
       <r>   -0.7528    1.0000 </r>
       <r>   -0.6793    1.0000 </r>
       <r>   -0.6578    1.0000 </r>
       <r>   -0.0548    1.0000 </r>
       <r>   -0.0154    1.0000 </r>
       <r>    8.9948    0.0000 </r>
       <r>   18.7659    0.0000 </r>
       <r>   19.8789    0.0000 </r>
       <r>   21.0879    0.0000 </r>
      </set>
      <set comment="kpoint 10">
       <r>   -4.1123    1.0000 </r>
       <r>   -0.8882    1.0000 </r>
       <r>   -0.6302    1.0000 </r>
       <r>   -0.6220    1.0000 </r>
       <r>   -0.2208    1.0000 </r>
       <r>   -0.1381    1.0000 </r>
       <r>   12.3423    0.0000 </r>
       <r>   19.1839    0.0000 </r>
       <r>   20.3025    0.0000 </r>
       <r>   22.1988    0.0000 </r>
      </set>
      <set comment="kpoint 11">
       <r>   -4.9973    1.0000 </r>
       <r>   -0.8400    1.0000 </r>
       <r>   -0.6494    1.0000 </r>
       <r>   -0.6470    1.0000 </r>
       <r>   -0.2763    1.0000 </r>
       <r>   -0.2023    1.0000 </r>
       <r>   16.0067    0.0000 </r>
       <r>   19.9215    0.0000 </r>
       <r>   20.8470    0.0000 </r>
       <r>   22.7464    0.0000 </r>
      </set>
      <set comment="kpoint 12">
       <r>   -5.5307    1.0000 </r>
       <r>   -0.7740    1.0000 </r>
       <r>   -0.7080    1.0000 </r>
       <r>   -0.7066    1.0000 </r>
       <r>   -0.2512    1.0000 </r>
       <r>   -0.2127    1.0000 </r>
       <r>   19.8447    0.0000 </r>
       <r>   20.9355    0.0000 </r>
       <r>   21.4575    0.0000 </r>
       <r>   22.2389    0.0000 </r>
      </set>
      <set comment="kpoint 13">
       <r>   -5.2616    1.0000 </r>
       <r>   -0.8302    1.0000 </r>
       <r>   -0.6590    1.0000 </r>
       <r>   -0.6582    1.0000 </r>
       <r>   -0.3001    1.0000 </r>
       <r>   -0.1890    1.0000 </r>
       <r>   18.6400    0.0000 </r>
       <r>   19.6479    0.0000 </r>
       <r>   20.6503    0.0000 </r>
       <r>   21.6810    0.0000 </r>
      </set>
      <set comment="kpoint 14">
       <r>   -4.7344    1.0000 </r>
       <r>   -0.9097    1.0000 </r>
       <r>   -0.6029    1.0000 </r>
       <r>   -0.5856    1.0000 </r>
       <r>   -0.3420    1.0000 </r>
       <r>   -0.1500    1.0000 </r>
       <r>   16.2078    0.0000 </r>
       <r>   17.6301    0.0000 </r>
       <r>   20.8554    0.0000 </r>
       <r>   22.2112    0.0000 </r>
      </set>
      <set comment="kpoint 15">
       <r>   -3.8634    1.0000 </r>
       <r>   -0.9741    1.0000 </r>
       <r>   -0.6323    1.0000 </r>
       <r>   -0.5490    1.0000 </r>
       <r>   -0.2523    1.0000 </r>
       <r>   -0.0502    1.0000 </r>
       <r>   12.5682    0.0000 </r>
       <r>   16.9279    0.0000 </r>
       <r>   20.3377    0.0000 </r>
       <r>   20.9007    0.0000 </r>
      </set>
      <set comment="kpoint 16">
       <r>   -2.8252    1.0000 </r>
       <r>   -0.9064    1.0000 </r>
       <r>   -0.7213    1.0000 </r>
       <r>   -0.5821    1.0000 </r>
       <r>   -0.0434    1.0000 </r>
       <r>    0.1676    1.0000 </r>
       <r>    9.2243    0.0000 </r>
       <r>   16.5939    0.0000 </r>
       <r>   19.0585    0.0000 </r>
       <r>   20.0311    0.0000 </r>
      </set>
      <set comment="kpoint 17">
       <r>   -2.1260    1.0000 </r>
       <r>   -0.8010    1.0000 </r>
       <r>   -0.6375    1.0000 </r>
       <r>   -0.5385    1.0000 </r>
       <r>    0.0965    1.0000 </r>
       <r>    0.8386    1.0000 </r>
       <r>    6.2841    0.0000 </r>
       <r>   16.6525    0.0000 </r>
       <r>   17.6260    0.0000 </r>
       <r>   19.9277    0.0000 </r>
      </set>
      <set comment="kpoint 18">
       <r>   -1.9497    1.0000 </r>
       <r>   -0.8317    1.0000 </r>
       <r>   -0.6632    1.0000 </r>
       <r>   -0.2938    1.0000 </r>
       <r>    0.1256    1.0000 </r>
       <r>    2.0620    0.0000 </r>
       <r>    4.1918    0.0000 </r>
       <r>   16.5448    0.0000 </r>
       <r>   17.1772    0.0000 </r>
       <r>   20.0791    0.0000 </r>
      </set>
      <set comment="kpoint 19">
       <r>   -2.0256    1.0000 </r>
       <r>   -0.8094    1.0000 </r>
       <r>   -0.6552    1.0000 </r>
       <r>   -0.3905    1.0000 </r>
       <r>    0.0644    1.0000 </r>
       <r>    1.2602    1.0000 </r>
       <r>    5.4349    0.0000 </r>
       <r>   15.9330    0.0000 </r>
       <r>   18.0725    0.0000 </r>
       <r>   20.4846    0.0000 </r>
      </set>
      <set comment="kpoint 20">
       <r>   -2.5208    1.0000 </r>
       <r>   -0.7913    1.0000 </r>
       <r>   -0.7405    1.0000 </r>
       <r>   -0.6072    1.0000 </r>
       <r>   -0.0818    1.0000 </r>
       <r>    0.3789    1.0000 </r>
       <r>    8.1981    0.0000 </r>
       <r>   15.7234    0.0000 </r>
       <r>   19.3857    0.0000 </r>
       <r>   21.0825    0.0000 </r>
      </set>
      <set comment="kpoint 21">
       <r>   -3.5185    1.0000 </r>
       <r>   -0.9570    1.0000 </r>
       <r>   -0.6612    1.0000 </r>
       <r>   -0.5567    1.0000 </r>
       <r>   -0.2600    1.0000 </r>
       <r>    0.0573    1.0000 </r>
       <r>   11.4219    0.0000 </r>
       <r>   15.9096    0.0000 </r>
       <r>   21.0627    0.0000 </r>
       <r>   21.7491    0.0000 </r>
      </set>
      <set comment="kpoint 22">
       <r>   -4.4784    1.0000 </r>
       <r>   -0.9176    1.0000 </r>
       <r>   -0.6177    1.0000 </r>
       <r>   -0.5727    1.0000 </r>
       <r>   -0.3394    1.0000 </r>
       <r>   -0.1129    1.0000 </r>
       <r>   14.9770    0.0000 </r>
       <r>   16.4705    0.0000 </r>
       <r>   22.3029    0.0000 </r>
       <r>   22.9882    0.0000 </r>
      </set>
      <set comment="kpoint 23">
       <r>   -5.1288    1.0000 </r>
       <r>   -0.8363    1.0000 </r>
       <r>   -0.6535    1.0000 </r>
       <r>   -0.6502    1.0000 </r>
       <r>   -0.2949    1.0000 </r>
       <r>   -0.1916    1.0000 </r>
       <r>   17.3471    0.0000 </r>
       <r>   18.7856    0.0000 </r>
       <r>   21.6900    0.0000 </r>
       <r>   22.6886    0.0000 </r>
      </set>
      <set comment="kpoint 24">
       <r>   -4.3484    1.0000 </r>
       <r>   -1.0070    1.0000 </r>
       <r>   -0.5211    1.0000 </r>
       <r>   -0.4958    1.0000 </r>
       <r>   -0.4041    1.0000 </r>
       <r>   -0.1138    1.0000 </r>
       <r>   16.4044    0.0000 </r>
       <r>   17.2139    0.0000 </r>
       <r>   19.1114    0.0000 </r>
       <r>   20.1967    0.0000 </r>
      </set>
      <set comment="kpoint 25">
       <r>   -3.6189    1.0000 </r>
       <r>   -1.1036    1.0000 </r>
       <r>   -0.5953    1.0000 </r>
       <r>   -0.3982    1.0000 </r>
       <r>   -0.2738    1.0000 </r>
       <r>   -0.0342    1.0000 </r>
       <r>   14.2089    0.0000 </r>
       <r>   15.5552    0.0000 </r>
       <r>   18.3060    0.0000 </r>
       <r>   19.3701    0.0000 </r>
      </set>
      <set comment="kpoint 26">
       <r>   -2.6836    1.0000 </r>
       <r>   -1.1458    1.0000 </r>
       <r>   -0.7200    1.0000 </r>
       <r>   -0.4010    1.0000 </r>
       <r>   -0.0114    1.0000 </r>
       <r>    0.2207    1.0000 </r>
       <r>   10.8170    0.0000 </r>
       <r>   15.0812    0.0000 </r>
       <r>   16.3721    0.0000 </r>
       <r>   19.0957    0.0000 </r>
      </set>
      <set comment="kpoint 27">
       <r>   -1.9413    1.0000 </r>
       <r>   -1.0541    1.0000 </r>
       <r>   -0.7874    1.0000 </r>
       <r>   -0.4476    1.0000 </r>
       <r>    0.1165    1.0000 </r>
       <r>    1.0325    1.0000 </r>
       <r>    7.7306    0.0000 </r>
       <r>   14.7426    0.0000 </r>
       <r>   15.0913    0.0000 </r>
       <r>   19.0419    0.0000 </r>
      </set>
      <set comment="kpoint 28">
       <r>   -1.6962    1.0000 </r>
       <r>   -0.9925    1.0000 </r>
       <r>   -0.6659    1.0000 </r>
       <r>   -0.4937    1.0000 </r>
       <r>    0.1316    1.0000 </r>
       <r>    2.5410    0.0000 </r>
       <r>    5.1147    0.0000 </r>
       <r>   13.5713    0.0000 </r>
       <r>   15.4700    0.0000 </r>
       <r>   19.2751    0.0000 </r>
      </set>
      <set comment="kpoint 29">
       <r>   -1.6779    1.0000 </r>
       <r>   -0.9619    1.0000 </r>
       <r>   -0.6512    1.0000 </r>
       <r>   -0.5122    1.0000 </r>
       <r>    0.0498    1.0000 </r>
       <r>    2.5649    0.0000 </r>
       <r>    5.1306    0.0000 </r>
       <r>   12.7710    0.0000 </r>
       <r>   16.3181    0.0000 </r>
       <r>   19.8342    0.0000 </r>
      </set>
      <set comment="kpoint 30">
       <r>   -1.8998    1.0000 </r>
       <r>   -0.8918    1.0000 </r>
       <r>   -0.8752    1.0000 </r>
       <r>   -0.4867    1.0000 </r>
       <r>   -0.1073    1.0000 </r>
       <r>    1.1597    1.0000 </r>
       <r>    7.7614    0.0000 </r>
       <r>   12.3845    0.0000 </r>
       <r>   17.5734    0.0000 </r>
       <r>   20.7521    0.0000 </r>
      </set>
      <set comment="kpoint 31">
       <r>   -2.6674    1.0000 </r>
       <r>   -1.0357    1.0000 </r>
       <r>   -0.7591    1.0000 </r>
       <r>   -0.4316    1.0000 </r>
       <r>   -0.3035    1.0000 </r>
       <r>    0.4391    1.0000 </r>
       <r>   10.8526    0.0000 </r>
       <r>   12.4192    0.0000 </r>
       <r>   19.1853    0.0000 </r>
       <r>   22.0091    0.0000 </r>
      </set>
      <set comment="kpoint 32">
       <r>   -3.6226    1.0000 </r>
       <r>   -0.9931    1.0000 </r>
       <r>   -0.6591    1.0000 </r>
       <r>   -0.4817    1.0000 </r>
       <r>   -0.3587    1.0000 </r>
       <r>    0.0791    1.0000 </r>
       <r>   12.8051    0.0000 </r>
       <r>   14.3294    0.0000 </r>
       <r>   21.0721    0.0000 </r>
       <r>   22.8166    0.0000 </r>
      </set>
      <set comment="kpoint 33">
       <r>   -4.3549    1.0000 </r>
       <r>   -0.9061    1.0000 </r>
       <r>   -0.6221    1.0000 </r>
       <r>   -0.5984    1.0000 </r>
       <r>   -0.2869    1.0000 </r>
       <r>   -0.1277    1.0000 </r>
       <r>   13.6079    0.0000 </r>
       <r>   17.9899    0.0000 </r>
       <r>   21.1124    0.0000 </r>
       <r>   22.7401    0.0000 </r>
      </set>
      <set comment="kpoint 34">
       <r>   -3.0747    1.0000 </r>
       <r>   -1.2255    1.0000 </r>
       <r>   -0.5032    1.0000 </r>
       <r>   -0.2707    1.0000 </r>
       <r>   -0.2040    1.0000 </r>
       <r>   -0.0184    1.0000 </r>
       <r>   14.5116    0.0000 </r>
       <r>   15.1743    0.0000 </r>
       <r>   15.9211    0.0000 </r>
       <r>   17.9488    0.0000 </r>
      </set>
      <set comment="kpoint 35">
       <r>   -2.3829    1.0000 </r>
       <r>   -1.3112    1.0000 </r>
       <r>   -0.5185    1.0000 </r>
       <r>   -0.1700    1.0000 </r>
       <r>   -0.0020    1.0000 </r>
       <r>    0.2322    1.0000 </r>
       <r>   12.6156    0.0000 </r>
       <r>   13.7810    0.0000 </r>
       <r>   13.9980    0.0000 </r>
       <r>   18.3150    0.0000 </r>
      </set>
      <set comment="kpoint 36">
       <r>   -1.8271    1.0000 </r>
       <r>   -1.3210    1.0000 </r>
       <r>   -0.6018    1.0000 </r>
       <r>   -0.2093    1.0000 </r>
       <r>    0.1281    1.0000 </r>
       <r>    1.2094    1.0000 </r>
       <r>    9.5267    0.0000 </r>
       <r>   12.1856    0.0000 </r>
       <r>   13.7240    0.0000 </r>
       <r>   18.2813    0.0000 </r>
      </set>
      <set comment="kpoint 37">
       <r>   -1.5544    1.0000 </r>
       <r>   -1.2457    1.0000 </r>
       <r>   -0.6736    1.0000 </r>
       <r>   -0.2704    1.0000 </r>
       <r>    0.1469    1.0000 </r>
       <r>    2.8433    0.0000 </r>
       <r>    6.7287    0.0000 </r>
       <r>   10.8630    0.0000 </r>
       <r>   14.0175    0.0000 </r>
       <r>   18.4551    0.0000 </r>
      </set>
      <set comment="kpoint 38">
       <r>   -1.4269    1.0000 </r>
       <r>   -1.1606    1.0000 </r>
       <r>   -0.7607    1.0000 </r>
       <r>   -0.3231    1.0000 </r>
       <r>    0.0657    1.0000 </r>
       <r>    4.2188    0.0000 </r>
       <r>    5.1230    0.0000 </r>
       <r>    9.9277    0.0000 </r>
       <r>   14.7759    0.0000 </r>
       <r>   18.9183    0.0000 </r>
      </set>
      <set comment="kpoint 39">
       <r>   -1.4312    1.0000 </r>
       <r>   -1.0493    1.0000 </r>
       <r>   -0.9372    1.0000 </r>
       <r>   -0.3520    1.0000 </r>
       <r>   -0.0773    1.0000 </r>
       <r>    2.4077    0.0000 </r>
       <r>    7.6059    0.0000 </r>
       <r>    9.4388    0.0000 </r>
       <r>   15.9488    0.0000 </r>
       <r>   19.7003    0.0000 </r>
      </set>
      <set comment="kpoint 40">
       <r>   -1.8533    1.0000 </r>
       <r>   -1.0202    1.0000 </r>
       <r>   -0.8948    1.0000 </r>
       <r>   -0.4043    1.0000 </r>
       <r>   -0.1927    1.0000 </r>
       <r>    1.1435    1.0000 </r>
       <r>    9.1242    0.0000 </r>
       <r>   10.7756    0.0000 </r>
       <r>   17.4704    0.0000 </r>
       <r>   20.7786    0.0000 </r>
      </set>
      <set comment="kpoint 41">
       <r>   -2.6138    1.0000 </r>
       <r>   -0.9582    1.0000 </r>
       <r>   -0.7523    1.0000 </r>
       <r>   -0.5260    1.0000 </r>
       <r>   -0.1941    1.0000 </r>
       <r>    0.4187    1.0000 </r>
       <r>    9.4675    0.0000 </r>
       <r>   14.0251    0.0000 </r>
       <r>   19.2557    0.0000 </r>
       <r>   21.6886    0.0000 </r>
      </set>
      <set comment="kpoint 42">
       <r>   -3.3193    1.0000 </r>
       <r>   -0.8792    1.0000 </r>
       <r>   -0.6675    1.0000 </r>
       <r>   -0.6179    1.0000 </r>
       <r>   -0.1522    1.0000 </r>
       <r>    0.0174    1.0000 </r>
       <r>   10.1473    0.0000 </r>
       <r>   17.5283    0.0000 </r>
       <r>   20.5540    0.0000 </r>
       <r>   21.1679    0.0000 </r>
      </set>
      <set comment="kpoint 43">
       <r>   -2.0841    1.0000 </r>
       <r>   -1.4267    1.0000 </r>
       <r>   -0.1114    1.0000 </r>
       <r>   -0.0387    1.0000 </r>
       <r>    0.0771    1.0000 </r>
       <r>    0.4209    1.0000 </r>
       <r>   11.7027    0.0000 </r>
       <r>   13.0928    0.0000 </r>
       <r>   13.6499    0.0000 </r>
       <r>   17.1805    0.0000 </r>
      </set>
      <set comment="kpoint 44">
       <r>   -1.8587    1.0000 </r>
       <r>   -1.4761    1.0000 </r>
       <r>   -0.1586    1.0000 </r>
       <r>    0.0301    1.0000 </r>
       <r>    0.1298    1.0000 </r>
       <r>    1.5234    0.8506 </r>
       <r>    9.9169    0.0000 </r>
       <r>   11.5729    0.0000 </r>
       <r>   12.7570    0.0000 </r>
       <r>   17.6786    0.0000 </r>
      </set>
      <set comment="kpoint 45">
       <r>   -1.6725    1.0000 </r>
       <r>   -1.4416    1.0000 </r>
       <r>   -0.3227    1.0000 </r>
       <r>   -0.0508    1.0000 </r>
       <r>    0.1718    1.0000 </r>
       <r>    3.1689    0.0000 </r>
       <r>    8.4385    0.0000 </r>
       <r>    8.9387    0.0000 </r>
       <r>   12.9113    0.0000 </r>
       <r>   17.8570    0.0000 </r>
      </set>
      <set comment="kpoint 46">
       <r>   -1.4962    1.0000 </r>
       <r>   -1.3363    1.0000 </r>
       <r>   -0.5518    1.0000 </r>
       <r>   -0.1411    1.0000 </r>
       <r>    0.1135    1.0000 </r>
       <r>    5.1066    0.0000 </r>
       <r>    6.2775    0.0000 </r>
       <r>    7.7493    0.0000 </r>
       <r>   13.5563    0.0000 </r>
       <r>   18.2160    0.0000 </r>
      </set>
      <set comment="kpoint 47">
       <r>   -1.3652    1.0000 </r>
       <r>   -1.1974    1.0000 </r>
       <r>   -0.7879    1.0000 </r>
       <r>   -0.2623    1.0000 </r>
       <r>    0.0273    1.0000 </r>
       <r>    4.1725    0.0000 </r>
       <r>    6.2712    0.0000 </r>
       <r>    8.4316    0.0000 </r>
       <r>   14.6356    0.0000 </r>
       <r>   18.8469    0.0000 </r>
      </set>
      <set comment="kpoint 48">
       <r>   -1.5383    1.0000 </r>
       <r>   -1.0175    1.0000 </r>
       <r>   -0.8172    1.0000 </r>
       <r>   -0.4229    1.0000 </r>
       <r>   -0.0175    1.0000 </r>
       <r>    2.4721    0.0000 </r>
       <r>    6.3052    0.0000 </r>
       <r>   11.0126    0.0000 </r>
       <r>   16.0724    0.0000 </r>
       <r>   19.7465    0.0000 </r>
      </set>
      <set comment="kpoint 49">
       <r>   -1.9647    1.0000 </r>
       <r>   -0.8446    1.0000 </r>
       <r>   -0.6715    1.0000 </r>
       <r>   -0.5713    1.0000 </r>
       <r>   -0.0143    1.0000 </r>
       <r>    1.1959    1.0000 </r>
       <r>    6.5139    0.0000 </r>
       <r>   14.1228    0.0000 </r>
       <r>   17.7768    0.0000 </r>
       <r>   20.6693    0.0000 </r>
      </set>
      <set comment="kpoint 50">
       <r>   -2.4094    1.0000 </r>
       <r>   -0.7368    1.0000 </r>
       <r>   -0.6716    1.0000 </r>
       <r>   -0.5116    1.0000 </r>
       <r>    0.0236    1.0000 </r>
       <r>    0.3281    1.0000 </r>
       <r>    7.0621    0.0000 </r>
       <r>   17.4280    0.0000 </r>
       <r>   19.5060    0.0000 </r>
       <r>   20.4138    0.0000 </r>
      </set>
      <set comment="kpoint 51">
       <r>   -1.8745    1.0000 </r>
       <r>   -1.5579    1.0000 </r>
       <r>    0.0940    1.0000 </r>
       <r>    0.1317    1.0000 </r>
       <r>    0.1787    1.0000 </r>
       <r>    2.3022    0.0000 </r>
       <r>    8.1621    0.0000 </r>
       <r>   12.2344    0.0000 </r>
       <r>   12.7492    0.0000 </r>
       <r>   16.7679    0.0000 </r>
      </set>
      <set comment="kpoint 52">
       <r>   -1.8121    1.0000 </r>
       <r>   -1.5552    1.0000 </r>
       <r>    0.0326    1.0000 </r>
       <r>    0.0837    1.0000 </r>
       <r>    0.2099    1.0000 </r>
       <r>    3.4585    0.0000 </r>
       <r>    7.0456    0.0000 </r>
       <r>   11.0739    0.0000 </r>
       <r>   12.2388    0.0000 </r>
       <r>   17.4130    0.0000 </r>
      </set>
      <set comment="kpoint 53">
       <r>   -1.6716    1.0000 </r>
       <r>   -1.4669    1.0000 </r>
       <r>   -0.2525    1.0000 </r>
       <r>   -0.0155    1.0000 </r>
       <r>    0.1758    1.0000 </r>
       <r>    4.1454    0.0000 </r>
       <r>    7.2648    0.0000 </r>
       <r>    8.6776    0.0000 </r>
       <r>   12.7445    0.0000 </r>
       <r>   17.7751    0.0000 </r>
      </set>
      <set comment="kpoint 54">
       <r>   -1.5068    1.0000 </r>
       <r>   -1.3074    1.0000 </r>
       <r>   -0.5978    1.0000 </r>
       <r>   -0.1914    1.0000 </r>
       <r>    0.1320    1.0000 </r>
       <r>    4.0027    0.0000 </r>
       <r>    6.4301    0.0000 </r>
       <r>    9.1340    0.0000 </r>
       <r>   13.7112    0.0000 </r>
       <r>   18.2957    0.0000 </r>
      </set>
      <set comment="kpoint 55">
       <r>   -1.5410    1.0000 </r>
       <r>   -1.0885    1.0000 </r>
       <r>   -0.7173    1.0000 </r>
       <r>   -0.4079    1.0000 </r>
       <r>    0.1071    1.0000 </r>
       <r>    3.6012    0.0000 </r>
       <r>    4.7696    0.0000 </r>
       <r>   11.6830    0.0000 </r>
       <r>   15.0549    0.0000 </r>
       <r>   19.0596    0.0000 </r>
      </set>
      <set comment="kpoint 56">
       <r>   -1.8182    1.0000 </r>
       <r>   -0.8957    1.0000 </r>
       <r>   -0.5962    1.0000 </r>
       <r>   -0.4713    1.0000 </r>
       <r>    0.1008    1.0000 </r>
       <r>    2.5256    0.0000 </r>
       <r>    4.3203    0.0000 </r>
       <r>   14.6333    0.0000 </r>
       <r>   16.6843    0.0000 </r>
       <r>   19.9520    0.0000 </r>
      </set>
      <set comment="kpoint 57">
       <r>   -2.0707    1.0000 </r>
       <r>   -0.7799    1.0000 </r>
       <r>   -0.7078    1.0000 </r>
       <r>   -0.1319    1.0000 </r>
       <r>    0.1175    1.0000 </r>
       <r>    1.3595    1.0000 </r>
       <r>    4.5841    0.0000 </r>
       <r>   17.7084    0.0000 </r>
       <r>   18.4454    0.0000 </r>
       <r>   20.2113    0.0000 </r>
      </set>
      <set comment="kpoint 58">
       <r>   -1.8652    1.0000 </r>
       <r>   -1.5859    1.0000 </r>
       <r>    0.1130    1.0000 </r>
       <r>    0.1780    1.0000 </r>
       <r>    0.2121    1.0000 </r>
       <r>    3.1950    0.0000 </r>
       <r>    6.9738    0.0000 </r>
       <r>   12.0570    0.0000 </r>
       <r>   12.5635    0.0000 </r>
       <r>   16.6872    0.0000 </r>
      </set>
      <set comment="kpoint 59">
       <r>   -1.8182    1.0000 </r>
       <r>   -1.5283    1.0000 </r>
       <r>   -0.0382    1.0000 </r>
       <r>    0.0771    1.0000 </r>
       <r>    0.1782    1.0000 </r>
       <r>    2.5511    0.0000 </r>
       <r>    8.2549    0.0000 </r>
       <r>   11.2412    0.0000 </r>
       <r>   12.4134    0.0000 </r>
       <r>   17.5004    0.0000 </r>
      </set>
      <set comment="kpoint 60">
       <r>   -1.7010    1.0000 </r>
       <r>   -1.3919    1.0000 </r>
       <r>   -0.4498    1.0000 </r>
       <r>   -0.1190    1.0000 </r>
       <r>    0.1580    1.0000 </r>
       <r>    2.1009    0.0000 </r>
       <r>    9.0571    0.0000 </r>
       <r>   10.3208    0.0000 </r>
       <r>   13.2399    0.0000 </r>
       <r>   18.0240    0.0000 </r>
      </set>
      <set comment="kpoint 61">
       <r>   -1.6830    1.0000 </r>
       <r>   -1.1562    1.0000 </r>
       <r>   -0.7483    1.0000 </r>
       <r>   -0.3599    1.0000 </r>
       <r>    0.1441    1.0000 </r>
       <r>    1.8308    0.0000 </r>
       <r>    7.1651    0.0000 </r>
       <r>   12.7548    0.0000 </r>
       <r>   14.4716    0.0000 </r>
       <r>   18.7018    0.0000 </r>
      </set>
      <set comment="kpoint 62">
       <r>   -1.8896    1.0000 </r>
       <r>   -0.8903    1.0000 </r>
       <r>   -0.6155    1.0000 </r>
       <r>   -0.5621    1.0000 </r>
       <r>    0.1298    1.0000 </r>
       <r>    1.5960    0.1553 </r>
       <r>    5.6327    0.0000 </r>
       <r>   15.5412    0.0000 </r>
       <r>   16.0316    0.0000 </r>
       <r>   19.5644    0.0000 </r>
      </set>
      <set comment="kpoint 63">
       <r>   -1.9218    1.0000 </r>
       <r>   -1.5037    1.0000 </r>
       <r>    0.0397    1.0000 </r>
       <r>    0.0470    1.0000 </r>
       <r>    0.1268    1.0000 </r>
       <r>    1.2633    1.0000 </r>
       <r>    9.8220    0.0000 </r>
       <r>   12.5831    0.0000 </r>
       <r>   13.1149    0.0000 </r>
       <r>   16.9314    0.0000 </r>
      </set>
      <set comment="kpoint 64">
       <r>   -2.0092    1.0000 </r>
       <r>   -1.4022    1.0000 </r>
       <r>   -0.3349    1.0000 </r>
       <r>   -0.0586    1.0000 </r>
       <r>    0.0754    1.0000 </r>
       <r>    0.7033    1.0000 </r>
       <r>   11.7259    0.0000 </r>
       <r>   12.1183    0.0000 </r>
       <r>   13.2610    0.0000 </r>
       <r>   17.9475    0.0000 </r>
      </set>
      <set comment="kpoint 65">
       <r>   -2.1546    1.0000 </r>
       <r>   -1.2362    1.0000 </r>
       <r>   -0.7070    1.0000 </r>
       <r>   -0.3071    1.0000 </r>
       <r>    0.0758    1.0000 </r>
       <r>    0.5856    1.0000 </r>
       <r>   10.1123    0.0000 </r>
       <r>   14.1543    0.0000 </r>
       <r>   14.4019    0.0000 </r>
       <r>   18.6357    0.0000 </r>
      </set>
      <set comment="kpoint 66">
       <r>   -2.3396    1.0000 </r>
       <r>   -0.9636    1.0000 </r>
       <r>   -0.7751    1.0000 </r>
       <r>   -0.5239    1.0000 </r>
       <r>    0.0578    1.0000 </r>
       <r>    0.4804    1.0000 </r>
       <r>    8.4183    0.0000 </r>
       <r>   15.7569    0.0000 </r>
       <r>   16.9083    0.0000 </r>
       <r>   19.4807    0.0000 </r>
      </set>
      <set comment="kpoint 67">
       <r>   -2.4733    1.0000 </r>
       <r>   -1.3318    1.0000 </r>
       <r>   -0.3504    1.0000 </r>
       <r>   -0.1500    1.0000 </r>
       <r>   -0.0142    1.0000 </r>
       <r>    0.0306    1.0000 </r>
       <r>   13.6471    0.0000 </r>
       <r>   13.8387    0.0000 </r>
       <r>   14.3417    0.0000 </r>
       <r>   17.5193    0.0000 </r>
      </set>
      <set comment="kpoint 68">
       <r>   -2.9691    1.0000 </r>
       <r>   -1.2094    1.0000 </r>
       <r>   -0.6019    1.0000 </r>
       <r>   -0.2867    1.0000 </r>
       <r>   -0.1377    1.0000 </r>
       <r>    0.0478    1.0000 </r>
       <r>   13.3600    0.0000 </r>
       <r>   14.6612    0.0000 </r>
       <r>   16.0414    0.0000 </r>
       <r>   18.7865    0.0000 </r>
      </set>
      <set comment="kpoint 69">
       <r>   -3.2882    1.0000 </r>
       <r>   -1.0564    1.0000 </r>
       <r>   -0.6774    1.0000 </r>
       <r>   -0.4831    1.0000 </r>
       <r>   -0.1447    1.0000 </r>
       <r>    0.0472    1.0000 </r>
       <r>   11.6365    0.0000 </r>
       <r>   15.9537    0.0000 </r>
       <r>   18.6081    0.0000 </r>
       <r>   19.6667    0.0000 </r>
      </set>
      <set comment="kpoint 70">
       <r>   -3.7359    1.0000 </r>
       <r>   -1.1147    1.0000 </r>
       <r>   -0.5228    1.0000 </r>
       <r>   -0.3887    1.0000 </r>
       <r>   -0.3368    1.0000 </r>
       <r>   -0.0672    1.0000 </r>
       <r>   15.4087    0.0000 </r>
       <r>   16.1357    0.0000 </r>
       <r>   18.1950    0.0000 </r>
       <r>   18.4813    0.0000 </r>
      </set>
      <set comment="kpoint 71">
       <r>   -4.2238    1.0000 </r>
       <r>   -1.0012    1.0000 </r>
       <r>   -0.5760    1.0000 </r>
       <r>   -0.4988    1.0000 </r>
       <r>   -0.3506    1.0000 </r>
       <r>   -0.0970    1.0000 </r>
       <r>   15.1597    0.0000 </r>
       <r>   16.5482    0.0000 </r>
       <r>   20.0633    0.0000 </r>
       <r>   20.6624    0.0000 </r>
      </set>
      <set comment="kpoint 72">
       <r>   -4.8640    1.0000 </r>
       <r>   -0.9099    1.0000 </r>
       <r>   -0.5893    1.0000 </r>
       <r>   -0.5871    1.0000 </r>
       <r>   -0.3620    1.0000 </r>
       <r>   -0.1553    1.0000 </r>
       <r>   17.4863    0.0000 </r>
       <r>   18.3911    0.0000 </r>
       <r>   19.8430    0.0000 </r>
       <r>   20.9274    0.0000 </r>
      </set>
      <set comment="kpoint 73">
       <r>   -5.2623    1.0000 </r>
       <r>   -0.8012    1.0000 </r>
       <r>   -0.6793    1.0000 </r>
       <r>   -0.6793    1.0000 </r>
       <r>   -0.2382    1.0000 </r>
       <r>   -0.2382    1.0000 </r>
       <r>   17.2469    0.0000 </r>
       <r>   21.2155    0.0000 </r>
       <r>   21.2155    0.0000 </r>
       <r>   21.9398    0.0000 </r>
      </set>
      <set comment="kpoint 74">
       <r>   -4.8657    1.0000 </r>
       <r>   -0.8630    1.0000 </r>
       <r>   -0.6342    1.0000 </r>
       <r>   -0.6275    1.0000 </r>
       <r>   -0.3095    1.0000 </r>
       <r>   -0.1692    1.0000 </r>
       <r>   16.1160    0.0000 </r>
       <r>   17.6006    0.0000 </r>
       <r>   22.8498    0.0000 </r>
       <r>   22.9394    0.0000 </r>
      </set>
      <set comment="kpoint 75">
       <r>   -4.1030    1.0000 </r>
       <r>   -0.9443    1.0000 </r>
       <r>   -0.6303    1.0000 </r>
       <r>   -0.5381    1.0000 </r>
       <r>   -0.3604    1.0000 </r>
       <r>   -0.0334    1.0000 </r>
       <r>   13.8391    0.0000 </r>
       <r>   15.3541    0.0000 </r>
       <r>   22.7234    0.0000 </r>
       <r>   23.3149    0.0000 </r>
      </set>
      <set comment="kpoint 76">
       <r>   -3.0891    1.0000 </r>
       <r>   -0.9496    1.0000 </r>
       <r>   -0.6919    1.0000 </r>
       <r>   -0.5550    1.0000 </r>
       <r>   -0.2528    1.0000 </r>
       <r>    0.2074    1.0000 </r>
       <r>   10.3866    0.0000 </r>
       <r>   14.9206    0.0000 </r>
       <r>   20.9749    0.0000 </r>
       <r>   21.7855    0.0000 </r>
      </set>
      <set comment="kpoint 77">
       <r>   -2.2232    1.0000 </r>
       <r>   -0.7839    1.0000 </r>
       <r>   -0.6819    1.0000 </r>
       <r>   -0.6129    1.0000 </r>
       <r>   -0.0741    1.0000 </r>
       <r>    0.6935    1.0000 </r>
       <r>    7.2943    0.0000 </r>
       <r>   14.8758    0.0000 </r>
       <r>   19.3549    0.0000 </r>
       <r>   20.5625    0.0000 </r>
      </set>
      <set comment="kpoint 78">
       <r>   -1.9251    1.0000 </r>
       <r>   -0.8405    1.0000 </r>
       <r>   -0.6423    1.0000 </r>
       <r>   -0.3775    1.0000 </r>
       <r>    0.0726    1.0000 </r>
       <r>    1.8536    0.0000 </r>
       <r>    4.7545    0.0000 </r>
       <r>   15.2365    0.0000 </r>
       <r>   18.1030    0.0000 </r>
       <r>   19.7048    0.0000 </r>
      </set>
      <set comment="kpoint 79">
       <r>   -1.9287    1.0000 </r>
       <r>   -0.8518    1.0000 </r>
       <r>   -0.6323    1.0000 </r>
       <r>   -0.4198    1.0000 </r>
       <r>    0.1404    1.0000 </r>
       <r>    1.8391    0.0000 </r>
       <r>    4.7471    0.0000 </r>
       <r>   16.0145    0.0000 </r>
       <r>   17.2801    0.0000 </r>
       <r>   19.1980    0.0000 </r>
      </set>
      <set comment="kpoint 80">
       <r>   -2.2319    1.0000 </r>
       <r>   -0.8280    1.0000 </r>
       <r>   -0.7247    1.0000 </r>
       <r>   -0.5908    1.0000 </r>
       <r>    0.1127    1.0000 </r>
       <r>    0.5878    1.0000 </r>
       <r>    7.2820    0.0000 </r>
       <r>   16.9115    0.0000 </r>
       <r>   17.2020    0.0000 </r>
       <r>   19.0050    0.0000 </r>
      </set>
      <set comment="kpoint 81">
       <r>   -3.0927    1.0000 </r>
       <r>   -0.9987    1.0000 </r>
       <r>   -0.6976    1.0000 </r>
       <r>   -0.5431    1.0000 </r>
       <r>   -0.0068    1.0000 </r>
       <r>    0.0137    1.0000 </r>
       <r>   10.3721    0.0000 </r>
       <r>   16.9910    0.0000 </r>
       <r>   18.7583    0.0000 </r>
       <r>   19.1054    0.0000 </r>
      </set>
      <set comment="kpoint 82">
       <r>   -4.1021    1.0000 </r>
       <r>   -0.9912    1.0000 </r>
       <r>   -0.5977    1.0000 </r>
       <r>   -0.5320    1.0000 </r>
       <r>   -0.2879    1.0000 </r>
       <r>   -0.0947    1.0000 </r>
       <r>   13.8204    0.0000 </r>
       <r>   17.4941    0.0000 </r>
       <r>   19.3797    0.0000 </r>
       <r>   20.7411    0.0000 </r>
      </set>
      <set comment="kpoint 83">
       <r>   -4.6068    1.0000 </r>
       <r>   -0.9060    1.0000 </r>
       <r>   -0.6088    1.0000 </r>
       <r>   -0.5977    1.0000 </r>
       <r>   -0.3093    1.0000 </r>
       <r>   -0.1532    1.0000 </r>
       <r>   14.8628    0.0000 </r>
       <r>   18.6655    0.0000 </r>
       <r>   20.0857    0.0000 </r>
       <r>   22.8925    0.0000 </r>
      </set>
      <set comment="kpoint 84">
       <r>   -3.9787    1.0000 </r>
       <r>   -0.9941    1.0000 </r>
       <r>   -0.6245    1.0000 </r>
       <r>   -0.4949    1.0000 </r>
       <r>   -0.3364    1.0000 </r>
       <r>   -0.0344    1.0000 </r>
       <r>   13.9380    0.0000 </r>
       <r>   15.4284    0.0000 </r>
       <r>   20.8362    0.0000 </r>
       <r>   21.5681    0.0000 </r>
      </set>
      <set comment="kpoint 85">
       <r>   -3.0649    1.0000 </r>
       <r>   -1.0586    1.0000 </r>
       <r>   -0.7198    1.0000 </r>
       <r>   -0.4101    1.0000 </r>
       <r>   -0.2957    1.0000 </r>
       <r>    0.2295    1.0000 </r>
       <r>   11.8786    0.0000 </r>
       <r>   13.4104    0.0000 </r>
       <r>   18.8224    0.0000 </r>
       <r>   22.3647    0.0000 </r>
      </set>
      <set comment="kpoint 86">
       <r>   -2.1551    1.0000 </r>
       <r>   -0.9868    1.0000 </r>
       <r>   -0.8352    1.0000 </r>
       <r>   -0.4631    1.0000 </r>
       <r>   -0.0977    1.0000 </r>
       <r>    0.7563    1.0000 </r>
       <r>    8.6646    0.0000 </r>
       <r>   13.2381    0.0000 </r>
       <r>   17.1235    0.0000 </r>
       <r>   21.7071    0.0000 </r>
      </set>
      <set comment="kpoint 87">
       <r>   -1.7521    1.0000 </r>
       <r>   -0.9357    1.0000 </r>
       <r>   -0.7059    1.0000 </r>
       <r>   -0.5085    1.0000 </r>
       <r>    0.0495    1.0000 </r>
       <r>    1.9238    0.0000 </r>
       <r>    5.8567    0.0000 </r>
       <r>   13.4796    0.0000 </r>
       <r>   15.7875    0.0000 </r>
       <r>   21.0956    0.0000 </r>
      </set>
      <set comment="kpoint 88">
       <r>   -1.7014    1.0000 </r>
       <r>   -0.9668    1.0000 </r>
       <r>   -0.6076    1.0000 </r>
       <r>   -0.5233    1.0000 </r>
       <r>    0.1091    1.0000 </r>
       <r>    2.9219    0.0000 </r>
       <r>    4.4571    0.0000 </r>
       <r>   14.1167    0.0000 </r>
       <r>   14.8662    0.0000 </r>
       <r>   20.6704    0.0000 </r>
      </set>
      <set comment="kpoint 89">
       <r>   -1.8381    1.0000 </r>
       <r>   -0.9515    1.0000 </r>
       <r>   -0.7875    1.0000 </r>
       <r>   -0.4831    1.0000 </r>
       <r>    0.0799    1.0000 </r>
       <r>    1.4166    1.0000 </r>
       <r>    6.7269    0.0000 </r>
       <r>   14.2598    0.0000 </r>
       <r>   15.2629    0.0000 </r>
       <r>   20.4969    0.0000 </r>
      </set>
      <set comment="kpoint 90">
       <r>   -2.4320    1.0000 </r>
       <r>   -1.0782    1.0000 </r>
       <r>   -0.7853    1.0000 </r>
       <r>   -0.4324    1.0000 </r>
       <r>   -0.0584    1.0000 </r>
       <r>    0.4581    1.0000 </r>
       <r>    9.6842    0.0000 </r>
       <r>   14.1712    0.0000 </r>
       <r>   16.7022    0.0000 </r>
       <r>   20.5750    0.0000 </r>
      </set>
      <set comment="kpoint 91">
       <r>   -3.3907    1.0000 </r>
       <r>   -1.0835    1.0000 </r>
       <r>   -0.6669    1.0000 </r>
       <r>   -0.4028    1.0000 </r>
       <r>   -0.2668    1.0000 </r>
       <r>    0.0686    1.0000 </r>
       <r>   13.0039    0.0000 </r>
       <r>   14.4854    0.0000 </r>
       <r>   18.5160    0.0000 </r>
       <r>   20.8637    0.0000 </r>
      </set>
      <set comment="kpoint 92">
       <r>   -3.5064    1.0000 </r>
       <r>   -1.0877    1.0000 </r>
       <r>   -0.6288    1.0000 </r>
       <r>   -0.4508    1.0000 </r>
       <r>   -0.1769    1.0000 </r>
       <r>   -0.0324    1.0000 </r>
       <r>   12.8833    0.0000 </r>
       <r>   16.4281    0.0000 </r>
       <r>   18.3968    0.0000 </r>
       <r>   18.7809    0.0000 </r>
      </set>
      <set comment="kpoint 93">
       <r>   -2.7663    1.0000 </r>
       <r>   -1.1779    1.0000 </r>
       <r>   -0.7065    1.0000 </r>
       <r>   -0.2980    1.0000 </r>
       <r>   -0.1536    1.0000 </r>
       <r>    0.2240    1.0000 </r>
       <r>   12.1767    0.0000 </r>
       <r>   13.6472    0.0000 </r>
       <r>   16.2675    0.0000 </r>
       <r>   20.2521    0.0000 </r>
      </set>
      <set comment="kpoint 94">
       <r>   -1.9874    1.0000 </r>
       <r>   -1.2083    1.0000 </r>
       <r>   -0.8256    1.0000 </r>
[...]
       <r>   -0.7081    1.0000 </r>
       <r>   -0.7081    1.0000 </r>
       <r>   -0.2728    1.0000 </r>
       <r>    0.0337    1.0000 </r>
       <r>    0.0337    1.0000 </r>
       <r>    6.9503    0.0000 </r>
       <r>   19.4947    0.0000 </r>
       <r>   19.4947    0.0000 </r>
       <r>   20.8743    0.0000 </r>
      </set>
      <set comment="kpoint 174">
       <r>   -2.2075    1.0000 </r>
       <r>   -0.7592    1.0000 </r>
       <r>   -0.6809    1.0000 </r>
       <r>   -0.3661    1.0000 </r>
       <r>    0.0127    1.0000 </r>
       <r>    0.6756    1.0000 </r>
       <r>    6.1800    0.0000 </r>
       <r>   16.6580    0.0000 </r>
       <r>   19.4907    0.0000 </r>
       <r>   20.5306    0.0000 </r>
      </set>
      <set comment="kpoint 175">
       <r>   -1.8132    1.0000 </r>
       <r>   -0.8898    1.0000 </r>
       <r>   -0.6163    1.0000 </r>
       <r>   -0.5636    1.0000 </r>
       <r>    0.0049    1.0000 </r>
       <r>    1.7904    0.0000 </r>
       <r>    5.7542    0.0000 </r>
       <r>   13.3917    0.0000 </r>
       <r>   17.7719    0.0000 </r>
       <r>   19.5772    0.0000 </r>
      </set>
      <set comment="kpoint 176">
       <r>   -1.4718    1.0000 </r>
       <r>   -1.0787    1.0000 </r>
       <r>   -0.7785    1.0000 </r>
       <r>   -0.3861    1.0000 </r>
       <r>    0.0181    1.0000 </r>
       <r>    3.2801    0.0000 </r>
       <r>    5.6426    0.0000 </r>
       <r>   10.4086    0.0000 </r>
       <r>   16.0497    0.0000 </r>
       <r>   18.6168    0.0000 </r>
      </set>
      <set comment="kpoint 177">
       <r>   -2.1044    1.0000 </r>
       <r>   -0.7846    1.0000 </r>
       <r>   -0.6827    1.0000 </r>
       <r>   -0.2918    1.0000 </r>
       <r>    0.1314    1.0000 </r>
       <r>    1.0157    1.0000 </r>
       <r>    5.3322    0.0000 </r>
       <r>   17.9378    0.0000 </r>
       <r>   17.9794    0.0000 </r>
       <r>   19.5584    0.0000 </r>
      </set>
      <set comment="kpoint 178">
       <r>   -1.8593    1.0000 </r>
       <r>   -0.8814    1.0000 </r>
       <r>   -0.6026    1.0000 </r>
       <r>   -0.4874    1.0000 </r>
       <r>    0.1033    1.0000 </r>
       <r>    2.0454    0.0000 </r>
       <r>    4.8398    0.0000 </r>
       <r>   15.2955    0.0000 </r>
       <r>   16.1452    0.0000 </r>
       <r>   20.6237    0.0000 </r>
      </set>
      <set comment="kpoint 179">
       <r>   -1.5502    1.0000 </r>
       <r>   -1.0515    1.0000 </r>
       <r>   -0.7219    1.0000 </r>
       <r>   -0.4397    1.0000 </r>
       <r>    0.0861    1.0000 </r>
       <r>    3.4538    0.0000 </r>
       <r>    4.6940    0.0000 </r>
       <r>   12.2641    0.0000 </r>
       <r>   14.4627    0.0000 </r>
       <r>   20.6416    0.0000 </r>
      </set>
      <set comment="kpoint 180">
       <r>   -1.7638    1.0000 </r>
       <r>   -0.9323    1.0000 </r>
       <r>   -0.5606    1.0000 </r>
       <r>   -0.5470    1.0000 </r>
       <r>    0.1210    1.0000 </r>
       <r>    2.7256    0.0000 </r>
       <r>    4.3827    0.0000 </r>
       <r>   14.0499    0.0000 </r>
       <r>   16.7403    0.0000 </r>
       <r>   18.9328    0.0000 </r>
      </set>
      <set comment="kpoint 181">
       <r>   -2.1485    1.0000 </r>
       <r>   -0.7452    1.0000 </r>
       <r>   -0.7452    1.0000 </r>
       <r>    0.1214    1.0000 </r>
       <r>    0.1214    1.0000 </r>
       <r>    0.9984    1.0000 </r>
       <r>    4.5058    0.0000 </r>
       <r>   19.3368    0.0000 </r>
       <r>   19.3368    0.0000 </r>
       <r>   20.6283    0.0000 </r>
      </set>
      <set comment="kpoint 182">
       <r>   -2.0203    1.0000 </r>
       <r>   -0.7951    1.0000 </r>
       <r>   -0.7014    1.0000 </r>
       <r>   -0.1472    1.0000 </r>
       <r>    0.1172    1.0000 </r>
       <r>    1.7913    0.0000 </r>
       <r>    4.1345    0.0000 </r>
       <r>   17.1143    0.0000 </r>
       <r>   18.5151    0.0000 </r>
       <r>   19.8828    0.0000 </r>
      </set>
     </set>
    </set>
   </array>
  </eigenvalues>
  <separator name="orbital magnetization" >
   <v name="MAGDIPOLOUT">      0.00000000      0.00000000      0.00000000</v>
  </separator>
  <dos>
   <i name="efermi">      1.56017162 </i>
   <total>
    <array>
     <dimension dim="1">gridpoints</dimension>
     <dimension dim="2">spin</dimension>
     <field>energy</field>
     <field>total</field>
     <field>integrated</field>
     <set>
      <set comment="spin 1">
       <r>    -7.1567     0.0000     0.0000 </r>
       <r>    -7.0475     0.0000     0.0000 </r>
       <r>    -6.9382     0.0000     0.0000 </r>
       <r>    -6.8289     0.0000     0.0000 </r>
       <r>    -6.7196     0.0000     0.0000 </r>
       <r>    -6.6103     0.0000     0.0000 </r>
       <r>    -6.5010     0.0000     0.0000 </r>
       <r>    -6.3917     0.0000     0.0000 </r>
       <r>    -6.2824     0.0000     0.0000 </r>
       <r>    -6.1731     0.0000     0.0000 </r>
       <r>    -6.0638     0.0000     0.0000 </r>
       <r>    -5.9545     0.0000     0.0000 </r>
       <r>    -5.8453     0.0000     0.0000 </r>
       <r>    -5.7360     0.0005     0.0001 </r>
       <r>    -5.6267     0.0181     0.0020 </r>
       <r>    -5.5174     0.0437     0.0068 </r>
       <r>    -5.4081     0.0456     0.0118 </r>
       <r>    -5.2988     0.0526     0.0175 </r>
       <r>    -5.1895     0.0761     0.0259 </r>
       <r>    -5.0802     0.1132     0.0382 </r>
       <r>    -4.9709     0.0594     0.0447 </r>
       <r>    -4.8616     0.0825     0.0537 </r>
       <r>    -4.7524     0.1190     0.0667 </r>
       <r>    -4.6431     0.1394     0.0820 </r>
       <r>    -4.5338     0.0626     0.0888 </r>
       <r>    -4.4245     0.1354     0.1036 </r>
       <r>    -4.3152     0.1686     0.1220 </r>
       <r>    -4.2059     0.1156     0.1347 </r>
       <r>    -4.0966     0.1532     0.1514 </r>
       <r>    -3.9873     0.1586     0.1688 </r>
       <r>    -3.8780     0.1506     0.1852 </r>
       <r>    -3.7687     0.1210     0.1985 </r>
       <r>    -3.6595     0.1419     0.2140 </r>
       <r>    -3.5502     0.2904     0.2457 </r>
       <r>    -3.4409     0.1824     0.2656 </r>
       <r>    -3.3316     0.1865     0.2860 </r>
       <r>    -3.2223     0.2010     0.3080 </r>
       <r>    -3.1130     0.1152     0.3206 </r>
       <r>    -3.0037     0.3680     0.3608 </r>
       <r>    -2.8944     0.2850     0.3919 </r>
       <r>    -2.7851     0.2083     0.4147 </r>
       <r>    -2.6758     0.2966     0.4471 </r>
       <r>    -2.5666     0.3248     0.4826 </r>
       <r>    -2.4573     0.3811     0.5243 </r>
       <r>    -2.3480     0.4279     0.5710 </r>
       <r>    -2.2387     0.3753     0.6120 </r>
       <r>    -2.1294     0.8399     0.7038 </r>
       <r>    -2.0201     0.7224     0.7828 </r>
       <r>    -1.9108     1.0786     0.9007 </r>
       <r>    -1.8015     1.5102     1.0657 </r>
       <r>    -1.6922     1.6537     1.2465 </r>
       <r>    -1.5829     1.8255     1.4460 </r>
       <r>    -1.4736     2.7209     1.7433 </r>
       <r>    -1.3644     3.4018     2.1151 </r>
       <r>    -1.2551     3.2464     2.4699 </r>
       <r>    -1.1458     3.2436     2.8244 </r>
       <r>    -1.0365     3.4815     3.2049 </r>
       <r>    -0.9272     4.3287     3.6780 </r>
       <r>    -0.8179     5.0767     4.2328 </r>
       <r>    -0.7086     6.2309     4.9138 </r>
       <r>    -0.5993     7.1714     5.6975 </r>
       <r>    -0.4900     5.2704     6.2735 </r>
       <r>    -0.3807     4.3477     6.7487 </r>
       <r>    -0.2715     5.5274     7.3528 </r>
       <r>    -0.1622     5.9561     8.0037 </r>
       <r>    -0.0529     5.2805     8.5808 </r>
       <r>     0.0564     6.1216     9.2499 </r>
       <r>     0.1657     8.0595    10.1307 </r>
       <r>     0.2750     3.1219    10.4719 </r>
       <r>     0.3843     0.4536    10.5215 </r>
       <r>     0.4936     0.6701    10.5947 </r>
       <r>     0.6029     0.3230    10.6300 </r>
       <r>     0.7122     0.3586    10.6692 </r>
       <r>     0.8214     0.6357    10.7387 </r>
       <r>     0.9307     0.3594    10.7779 </r>
       <r>     1.0400     0.2032    10.8001 </r>
       <r>     1.1493     0.3130    10.8344 </r>
       <r>     1.2586     0.5545    10.8950 </r>
       <r>     1.3679     0.4063    10.9394 </r>
       <r>     1.4772     0.2894    10.9710 </r>
       <r>     1.5865     0.3361    11.0077 </r>
       <r>     1.6958     0.2498    11.0350 </r>
       <r>     1.8051     0.4060    11.0794 </r>
       <r>     1.9143     0.4428    11.1278 </r>
       <r>     2.0236     0.3008    11.1607 </r>
       <r>     2.1329     0.4657    11.2116 </r>
       <r>     2.2422     0.1095    11.2235 </r>
       <r>     2.3515     0.1792    11.2431 </r>
       <r>     2.4608     0.3387    11.2801 </r>
       <r>     2.5701     0.5629    11.3417 </r>
       <r>     2.6794     0.3429    11.3791 </r>
       <r>     2.7887     0.2035    11.4014 </r>
       <r>     2.8980     0.2800    11.4320 </r>
       <r>     3.0073     0.2962    11.4643 </r>
       <r>     3.1165     0.1333    11.4789 </r>
       <r>     3.2258     0.3252    11.5145 </r>
       <r>     3.3351     0.2848    11.5456 </r>
       <r>     3.4444     0.3575    11.5847 </r>
       <r>     3.5537     0.3500    11.6229 </r>
       <r>     3.6630     0.2567    11.6510 </r>
       <r>     3.7723     0.2678    11.6802 </r>
       <r>     3.8816     0.0968    11.6908 </r>
       <r>     3.9909     0.2639    11.7197 </r>
       <r>     4.1002     0.1736    11.7386 </r>
       <r>     4.2094     0.5324    11.7968 </r>
       <r>     4.3187     0.3015    11.8298 </r>
       <r>     4.4280     0.3021    11.8628 </r>
       <r>     4.5373     0.4240    11.9091 </r>
       <r>     4.6466     0.4035    11.9532 </r>
       <r>     4.7559     0.3355    11.9899 </r>
       <r>     4.8652     0.3551    12.0287 </r>
       <r>     4.9745     0.2054    12.0512 </r>
       <r>     5.0838     0.2120    12.0743 </r>
       <r>     5.1931     0.4790    12.1267 </r>
       <r>     5.3023     0.3359    12.1634 </r>
       <r>     5.4116     0.4365    12.2111 </r>
       <r>     5.5209     0.3051    12.2444 </r>
       <r>     5.6302     0.1916    12.2654 </r>
       <r>     5.7395     0.3909    12.3081 </r>
       <r>     5.8488     0.4761    12.3601 </r>
       <r>     5.9581     0.0942    12.3704 </r>
       <r>     6.0674     0.1781    12.3899 </r>
       <r>     6.1767     0.3115    12.4239 </r>
       <r>     6.2860     0.4676    12.4750 </r>
       <r>     6.3952     0.2695    12.5045 </r>
       <r>     6.5045     0.2311    12.5297 </r>
       <r>     6.6138     0.4190    12.5755 </r>
       <r>     6.7231     0.2529    12.6032 </r>
       <r>     6.8324     0.1624    12.6209 </r>
       <r>     6.9417     0.1973    12.6425 </r>
       <r>     7.0510     0.5326    12.7007 </r>
       <r>     7.1603     0.4978    12.7551 </r>
       <r>     7.2696     0.3356    12.7918 </r>
       <r>     7.3789     0.3624    12.8314 </r>
       <r>     7.4882     0.4430    12.8798 </r>
       <r>     7.5974     0.1383    12.8949 </r>
       <r>     7.7067     0.4295    12.9419 </r>
       <r>     7.8160     0.4723    12.9935 </r>
       <r>     7.9253     0.2699    13.0230 </r>
       <r>     8.0346     0.5815    13.0865 </r>
       <r>     8.1439     0.3073    13.1201 </r>
       <r>     8.2532     0.3478    13.1581 </r>
       <r>     8.3625     0.4142    13.2034 </r>
       <r>     8.4718     0.7599    13.2864 </r>
       <r>     8.5811     0.1676    13.3048 </r>
       <r>     8.6903     0.3969    13.3481 </r>
       <r>     8.7996     0.2145    13.3716 </r>
       <r>     8.9089     0.3707    13.4121 </r>
       <r>     9.0182     0.6286    13.4808 </r>
       <r>     9.1275     0.5655    13.5426 </r>
       <r>     9.2368     0.4375    13.5904 </r>
       <r>     9.3461     0.3678    13.6306 </r>
       <r>     9.4554     0.2760    13.6608 </r>
       <r>     9.5647     0.3677    13.7010 </r>
       <r>     9.6740     0.2920    13.7329 </r>
       <r>     9.7832     0.3155    13.7673 </r>
       <r>     9.8925     0.3811    13.8090 </r>
       <r>    10.0018     0.7751    13.8937 </r>
       <r>    10.1111     0.5673    13.9557 </r>
       <r>    10.2204     0.4619    14.0062 </r>
       <r>    10.3297     0.1214    14.0195 </r>
       <r>    10.4390     0.5539    14.0800 </r>
       <r>    10.5483     0.6431    14.1503 </r>
       <r>    10.6576     0.2957    14.1826 </r>
       <r>    10.7669     0.4233    14.2289 </r>
       <r>    10.8761     0.5197    14.2857 </r>
       <r>    10.9854     0.2881    14.3172 </r>
       <r>    11.0947     0.5857    14.3812 </r>
       <r>    11.2040     0.2976    14.4137 </r>
       <r>    11.3133     0.5352    14.4722 </r>
       <r>    11.4226     0.4213    14.5182 </r>
       <r>    11.5319     0.3313    14.5544 </r>
       <r>    11.6412     0.5665    14.6164 </r>
       <r>    11.7505     0.6718    14.6898 </r>
       <r>    11.8598     0.3850    14.7319 </r>
       <r>    11.9691     0.4514    14.7812 </r>
       <r>    12.0783     0.4393    14.8292 </r>
       <r>    12.1876     0.4317    14.8764 </r>
       <r>    12.2969     0.5970    14.9416 </r>
       <r>    12.4062     0.4385    14.9896 </r>
       <r>    12.5155     0.7398    15.0704 </r>
       <r>    12.6248     0.5969    15.1356 </r>
       <r>    12.7341     0.3756    15.1767 </r>
       <r>    12.8434     0.5426    15.2360 </r>
       <r>    12.9527     0.6521    15.3073 </r>
       <r>    13.0620     0.5077    15.3628 </r>
       <r>    13.1712     0.4809    15.4153 </r>
       <r>    13.2805     0.4010    15.4591 </r>
       <r>    13.3898     0.3961    15.5024 </r>
       <r>    13.4991     0.5591    15.5635 </r>
       <r>    13.6084     0.5184    15.6202 </r>
       <r>    13.7177     0.5101    15.6759 </r>
       <r>    13.8270     0.4968    15.7302 </r>
       <r>    13.9363     0.3422    15.7676 </r>
       <r>    14.0456     0.5375    15.8264 </r>
       <r>    14.1549     0.6829    15.9010 </r>
       <r>    14.2641     0.5430    15.9604 </r>
       <r>    14.3734     0.2616    15.9889 </r>
       <r>    14.4827     0.5031    16.0439 </r>
       <r>    14.5920     0.3741    16.0848 </r>
       <r>    14.7013     0.5671    16.1468 </r>
       <r>    14.8106     0.3625    16.1864 </r>
       <r>    14.9199     0.4180    16.2321 </r>
       <r>    15.0292     0.5275    16.2897 </r>
       <r>    15.1385     0.5456    16.3494 </r>
       <r>    15.2478     0.2957    16.3817 </r>
       <r>    15.3570     0.3138    16.4160 </r>
       <r>    15.4663     0.3816    16.4577 </r>
       <r>    15.5756     0.4838    16.5106 </r>
       <r>    15.6849     0.1355    16.5254 </r>
       <r>    15.7942     0.2856    16.5566 </r>
       <r>    15.9035     0.2256    16.5812 </r>
       <r>    16.0128     0.6223    16.6493 </r>
       <r>    16.1221     0.5955    16.7143 </r>
       <r>    16.2314     0.3955    16.7576 </r>
       <r>    16.3407     0.3013    16.7905 </r>
       <r>    16.4500     0.2975    16.8230 </r>
       <r>    16.5592     0.3446    16.8607 </r>
       <r>    16.6685     0.6078    16.9271 </r>
       <r>    16.7778     0.3973    16.9705 </r>
       <r>    16.8871     0.1192    16.9835 </r>
       <r>    16.9964     0.4216    17.0296 </r>
       <r>    17.1057     0.2544    17.0574 </r>
       <r>    17.2150     0.4334    17.1048 </r>
       <r>    17.3243     0.2970    17.1372 </r>
       <r>    17.4336     0.4694    17.1885 </r>
       <r>    17.5429     0.7440    17.2699 </r>
       <r>    17.6521     0.5757    17.3328 </r>
       <r>    17.7614     0.4222    17.3789 </r>
       <r>    17.8707     0.4596    17.4291 </r>
       <r>    17.9800     0.4797    17.4816 </r>
       <r>    18.0893     0.4687    17.5328 </r>
       <r>    18.1986     0.2560    17.5608 </r>
       <r>    18.3079     0.5692    17.6230 </r>
       <r>    18.4172     0.4545    17.6726 </r>
       <r>    18.5265     0.4732    17.7244 </r>
       <r>    18.6358     0.5772    17.7874 </r>
       <r>    18.7450     0.5489    17.8474 </r>
       <r>    18.8543     0.7901    17.9338 </r>
       <r>    18.9636     0.4733    17.9855 </r>
       <r>    19.0729     0.5337    18.0438 </r>
       <r>    19.1822     0.6426    18.1141 </r>
       <r>    19.2915     0.5847    18.1780 </r>
       <r>    19.4008     0.6054    18.2441 </r>
       <r>    19.5101     0.6252    18.3125 </r>
       <r>    19.6194     0.4984    18.3669 </r>
       <r>    19.7287     0.5178    18.4235 </r>
       <r>    19.8379     0.6122    18.4904 </r>
       <r>    19.9472     0.5892    18.5548 </r>
       <r>    20.0565     0.4901    18.6084 </r>
       <r>    20.1658     0.4218    18.6545 </r>
       <r>    20.2751     0.5239    18.7117 </r>
       <r>    20.3844     0.3027    18.7448 </r>
       <r>    20.4937     0.4553    18.7946 </r>
       <r>    20.6030     0.9410    18.8974 </r>
       <r>    20.7123     0.8367    18.9889 </r>
       <r>    20.8216     0.6357    19.0583 </r>
       <r>    20.9308     0.6024    19.1242 </r>
       <r>    21.0401     0.6666    19.1970 </r>
       <r>    21.1494     0.9377    19.2995 </r>
       <r>    21.2587     0.3071    19.3331 </r>
       <r>    21.3680     0.1435    19.3488 </r>
       <r>    21.4773     0.4952    19.4029 </r>
       <r>    21.5866     0.3984    19.4464 </r>
       <r>    21.6959     0.6574    19.5183 </r>
       <r>    21.8052     0.4760    19.5703 </r>
       <r>    21.9145     0.1678    19.5886 </r>
       <r>    22.0238     0.2346    19.6143 </r>
       <r>    22.1330     0.2272    19.6391 </r>
       <r>    22.2423     0.2560    19.6671 </r>
       <r>    22.3516     0.6045    19.7331 </r>
       <r>    22.4609     0.3663    19.7732 </r>
       <r>    22.5702     0.2539    19.8009 </r>
       <r>    22.6795     0.3148    19.8353 </r>
       <r>    22.7888     0.4736    19.8871 </r>
       <r>    22.8981     0.3679    19.9273 </r>
       <r>    23.0074     0.1812    19.9471 </r>
       <r>    23.1167     0.0393    19.9514 </r>
       <r>    23.2259     0.0625    19.9582 </r>
       <r>    23.3352     0.1099    19.9702 </r>
       <r>    23.4445     0.0181    19.9722 </r>
       <r>    23.5538     0.0000    19.9722 </r>
       <r>    23.6631     0.0000    19.9722 </r>
       <r>    23.7724     0.0000    19.9722 </r>
       <r>    23.8817     0.0124    19.9736 </r>
       <r>    23.9910     0.1101    19.9856 </r>
       <r>    24.1003     0.0212    19.9879 </r>
       <r>    24.2096     0.1074    19.9997 </r>
       <r>    24.3188     0.0031    20.0000 </r>
       <r>    24.4281     0.0000    20.0000 </r>
       <r>    24.5374     0.0000    20.0000 </r>
       <r>    24.6467     0.0000    20.0000 </r>
       <r>    24.7560     0.0000    20.0000 </r>
       <r>    24.8653     0.0000    20.0000 </r>
       <r>    24.9746     0.0000    20.0000 </r>
       <r>    25.0839     0.0000    20.0000 </r>
       <r>    25.1932     0.0000    20.0000 </r>
       <r>    25.3025     0.0000    20.0000 </r>
       <r>    25.4117     0.0000    20.0000 </r>
       <r>    25.5210     0.0000    20.0000 </r>
       <r>    25.6303     0.0000    20.0000 </r>
      </set>
     </set>
    </array>
   </total>
  </dos>
 </calculation>
 <structure name="finalpos" >
  <crystal>
   <varray name="basis" >
    <v>       2.00000000       2.00000000       0.00000000 </v>
    <v>       0.00000000       2.00000000       2.00000000 </v>
    <v>       2.00000000       0.00000000       2.00000000 </v>
   </varray>
   <i name="volume">     16.00000000 </i>
   <varray name="rec_basis" >
    <v>       0.25000000       0.25000000      -0.25000000 </v>
    <v>      -0.25000000       0.25000000       0.25000000 </v>
    <v>       0.25000000      -0.25000000       0.25000000 </v>
   </varray>
  </crystal>
  <varray name="positions" >
   <v>       0.00000000       0.00000000       0.00000000 </v>
  </varray>
 </structure>
</modeling>
